+ 0 1 2 tcp 40 ------- 1 1.0 3.1 0 0
- 0 1 2 tcp 40 ------- 1 1.0 3.1 0 0
r 0.02128 1 2 tcp 40 ------- 1 1.0 3.1 0 0
+ 0.02128 2 3 tcp 40 ------- 1 1.0 3.1 0 0
- 0.02128 2 3 tcp 40 ------- 1 1.0 3.1 0 0
r 0.52768 2 3 tcp 40 ------- 1 1.0 3.1 0 0
+ 0.52768 3 2 ack 40 ------- 1 3.1 1.0 0 1
- 0.52768 3 2 ack 40 ------- 1 3.1 1.0 0 1
r 1.03408 3 2 ack 40 ------- 1 3.1 1.0 0 1
+ 1.03408 2 1 ack 40 ------- 1 3.1 1.0 0 1
- 1.03408 2 1 ack 40 ------- 1 3.1 1.0 0 1
r 1.05536 2 1 ack 40 ------- 1 3.1 1.0 0 1
+ 1.05536 1 2 tcp 1000 ------- 1 1.0 3.1 1 2
- 1.05536 1 2 tcp 1000 ------- 1 1.0 3.1 1 2
+ 1.05536 1 2 tcp 1000 ------- 1 1.0 3.1 2 3
- 1.08736 1 2 tcp 1000 ------- 1 1.0 3.1 2 3
r 1.10736 1 2 tcp 1000 ------- 1 1.0 3.1 1 2
+ 1.10736 2 3 tcp 1000 ------- 1 1.0 3.1 1 2
- 1.10736 2 3 tcp 1000 ------- 1 1.0 3.1 1 2
r 1.13936 1 2 tcp 1000 ------- 1 1.0 3.1 2 3
+ 1.13936 2 3 tcp 1000 ------- 1 1.0 3.1 2 3
- 1.26736 2 3 tcp 1000 ------- 1 1.0 3.1 2 3
r 1.76736 2 3 tcp 1000 ------- 1 1.0 3.1 1 2
+ 1.76736 3 2 ack 40 ------- 1 3.1 1.0 1 4
- 1.76736 3 2 ack 40 ------- 1 3.1 1.0 1 4
r 1.92736 2 3 tcp 1000 ------- 1 1.0 3.1 2 3
+ 1.92736 3 2 ack 40 ------- 1 3.1 1.0 2 5
- 1.92736 3 2 ack 40 ------- 1 3.1 1.0 2 5
r 2.27376 3 2 ack 40 ------- 1 3.1 1.0 1 4
+ 2.27376 2 1 ack 40 ------- 1 3.1 1.0 1 4
- 2.27376 2 1 ack 40 ------- 1 3.1 1.0 1 4
r 2.29504 2 1 ack 40 ------- 1 3.1 1.0 1 4
+ 2.29504 1 2 tcp 1000 ------- 1 1.0 3.1 3 6
- 2.29504 1 2 tcp 1000 ------- 1 1.0 3.1 3 6
+ 2.29504 1 2 tcp 1000 ------- 1 1.0 3.1 4 7
- 2.32704 1 2 tcp 1000 ------- 1 1.0 3.1 4 7
r 2.34704 1 2 tcp 1000 ------- 1 1.0 3.1 3 6
+ 2.34704 2 3 tcp 1000 ------- 1 1.0 3.1 3 6
- 2.34704 2 3 tcp 1000 ------- 1 1.0 3.1 3 6
r 2.37904 1 2 tcp 1000 ------- 1 1.0 3.1 4 7
+ 2.37904 2 3 tcp 1000 ------- 1 1.0 3.1 4 7
r 2.43376 3 2 ack 40 ------- 1 3.1 1.0 2 5
+ 2.43376 2 1 ack 40 ------- 1 3.1 1.0 2 5
- 2.43376 2 1 ack 40 ------- 1 3.1 1.0 2 5
r 2.45504 2 1 ack 40 ------- 1 3.1 1.0 2 5
+ 2.45504 1 2 tcp 1000 ------- 1 1.0 3.1 5 8
- 2.45504 1 2 tcp 1000 ------- 1 1.0 3.1 5 8
+ 2.45504 1 2 tcp 1000 ------- 1 1.0 3.1 6 9
- 2.48704 1 2 tcp 1000 ------- 1 1.0 3.1 6 9
r 2.50704 1 2 tcp 1000 ------- 1 1.0 3.1 5 8
+ 2.50704 2 3 tcp 1000 ------- 1 1.0 3.1 5 8
- 2.50704 2 3 tcp 1000 ------- 1 1.0 3.1 4 7
r 2.53904 1 2 tcp 1000 ------- 1 1.0 3.1 6 9
+ 2.53904 2 3 tcp 1000 ------- 1 1.0 3.1 6 9
- 2.66704 2 3 tcp 1000 ------- 1 1.0 3.1 5 8
- 2.82704 2 3 tcp 1000 ------- 1 1.0 3.1 6 9
r 3.00704 2 3 tcp 1000 ------- 1 1.0 3.1 3 6
+ 3.00704 3 2 ack 40 ------- 1 3.1 1.0 3 10
- 3.00704 3 2 ack 40 ------- 1 3.1 1.0 3 10
r 3.16704 2 3 tcp 1000 ------- 1 1.0 3.1 4 7
+ 3.16704 3 2 ack 40 ------- 1 3.1 1.0 4 11
- 3.16704 3 2 ack 40 ------- 1 3.1 1.0 4 11
r 3.32704 2 3 tcp 1000 ------- 1 1.0 3.1 5 8
+ 3.32704 3 2 ack 40 ------- 1 3.1 1.0 5 12
- 3.32704 3 2 ack 40 ------- 1 3.1 1.0 5 12
r 3.48704 2 3 tcp 1000 ------- 1 1.0 3.1 6 9
+ 3.48704 3 2 ack 40 ------- 1 3.1 1.0 6 13
- 3.48704 3 2 ack 40 ------- 1 3.1 1.0 6 13
r 3.51344 3 2 ack 40 ------- 1 3.1 1.0 3 10
+ 3.51344 2 1 ack 40 ------- 1 3.1 1.0 3 10
- 3.51344 2 1 ack 40 ------- 1 3.1 1.0 3 10
r 3.53472 2 1 ack 40 ------- 1 3.1 1.0 3 10
+ 3.53472 1 2 tcp 1000 ------- 1 1.0 3.1 7 14
- 3.53472 1 2 tcp 1000 ------- 1 1.0 3.1 7 14
+ 3.53472 1 2 tcp 1000 ------- 1 1.0 3.1 8 15
- 3.56672 1 2 tcp 1000 ------- 1 1.0 3.1 8 15
r 3.58672 1 2 tcp 1000 ------- 1 1.0 3.1 7 14
+ 3.58672 2 3 tcp 1000 ------- 1 1.0 3.1 7 14
- 3.58672 2 3 tcp 1000 ------- 1 1.0 3.1 7 14
r 3.61872 1 2 tcp 1000 ------- 1 1.0 3.1 8 15
+ 3.61872 2 3 tcp 1000 ------- 1 1.0 3.1 8 15
r 3.67344 3 2 ack 40 ------- 1 3.1 1.0 4 11
+ 3.67344 2 1 ack 40 ------- 1 3.1 1.0 4 11
- 3.67344 2 1 ack 40 ------- 1 3.1 1.0 4 11
r 3.69472 2 1 ack 40 ------- 1 3.1 1.0 4 11
+ 3.69472 1 2 tcp 1000 ------- 1 1.0 3.1 9 16
- 3.69472 1 2 tcp 1000 ------- 1 1.0 3.1 9 16
+ 3.69472 1 2 tcp 1000 ------- 1 1.0 3.1 10 17
- 3.72672 1 2 tcp 1000 ------- 1 1.0 3.1 10 17
- 3.74672 2 3 tcp 1000 ------- 1 1.0 3.1 8 15
r 3.74672 1 2 tcp 1000 ------- 1 1.0 3.1 9 16
+ 3.74672 2 3 tcp 1000 ------- 1 1.0 3.1 9 16
r 3.77872 1 2 tcp 1000 ------- 1 1.0 3.1 10 17
+ 3.77872 2 3 tcp 1000 ------- 1 1.0 3.1 10 17
r 3.83344 3 2 ack 40 ------- 1 3.1 1.0 5 12
+ 3.83344 2 1 ack 40 ------- 1 3.1 1.0 5 12
- 3.83344 2 1 ack 40 ------- 1 3.1 1.0 5 12
r 3.85472 2 1 ack 40 ------- 1 3.1 1.0 5 12
+ 3.85472 1 2 tcp 1000 ------- 1 1.0 3.1 11 18
- 3.85472 1 2 tcp 1000 ------- 1 1.0 3.1 11 18
+ 3.85472 1 2 tcp 1000 ------- 1 1.0 3.1 12 19
- 3.88672 1 2 tcp 1000 ------- 1 1.0 3.1 12 19
- 3.90672 2 3 tcp 1000 ------- 1 1.0 3.1 9 16
r 3.90672 1 2 tcp 1000 ------- 1 1.0 3.1 11 18
+ 3.90672 2 3 tcp 1000 ------- 1 1.0 3.1 11 18
r 3.93872 1 2 tcp 1000 ------- 1 1.0 3.1 12 19
+ 3.93872 2 3 tcp 1000 ------- 1 1.0 3.1 12 19
r 3.99344 3 2 ack 40 ------- 1 3.1 1.0 6 13
+ 3.99344 2 1 ack 40 ------- 1 3.1 1.0 6 13
- 3.99344 2 1 ack 40 ------- 1 3.1 1.0 6 13
r 4.01472 2 1 ack 40 ------- 1 3.1 1.0 6 13
+ 4.01472 1 2 tcp 1000 ------- 1 1.0 3.1 13 20
- 4.01472 1 2 tcp 1000 ------- 1 1.0 3.1 13 20
+ 4.01472 1 2 tcp 1000 ------- 1 1.0 3.1 14 21
- 4.04672 1 2 tcp 1000 ------- 1 1.0 3.1 14 21
- 4.06672 2 3 tcp 1000 ------- 1 1.0 3.1 10 17
r 4.06672 1 2 tcp 1000 ------- 1 1.0 3.1 13 20
+ 4.06672 2 3 tcp 1000 ------- 1 1.0 3.1 13 20
r 4.09872 1 2 tcp 1000 ------- 1 1.0 3.1 14 21
+ 4.09872 2 3 tcp 1000 ------- 1 1.0 3.1 14 21
- 4.22672 2 3 tcp 1000 ------- 1 1.0 3.1 11 18
r 4.24672 2 3 tcp 1000 ------- 1 1.0 3.1 7 14
+ 4.24672 3 2 ack 40 ------- 1 3.1 1.0 7 22
- 4.24672 3 2 ack 40 ------- 1 3.1 1.0 7 22
- 4.38672 2 3 tcp 1000 ------- 1 1.0 3.1 12 19
r 4.40672 2 3 tcp 1000 ------- 1 1.0 3.1 8 15
+ 4.40672 3 2 ack 40 ------- 1 3.1 1.0 8 23
- 4.40672 3 2 ack 40 ------- 1 3.1 1.0 8 23
- 4.54672 2 3 tcp 1000 ------- 1 1.0 3.1 13 20
r 4.56672 2 3 tcp 1000 ------- 1 1.0 3.1 9 16
+ 4.56672 3 2 ack 40 ------- 1 3.1 1.0 9 24
- 4.56672 3 2 ack 40 ------- 1 3.1 1.0 9 24
- 4.70672 2 3 tcp 1000 ------- 1 1.0 3.1 14 21
r 4.72672 2 3 tcp 1000 ------- 1 1.0 3.1 10 17
+ 4.72672 3 2 ack 40 ------- 1 3.1 1.0 10 25
- 4.72672 3 2 ack 40 ------- 1 3.1 1.0 10 25
r 4.75312 3 2 ack 40 ------- 1 3.1 1.0 7 22
+ 4.75312 2 1 ack 40 ------- 1 3.1 1.0 7 22
- 4.75312 2 1 ack 40 ------- 1 3.1 1.0 7 22
r 4.7744 2 1 ack 40 ------- 1 3.1 1.0 7 22
+ 4.7744 1 2 tcp 1000 ------- 1 1.0 3.1 15 26
- 4.7744 1 2 tcp 1000 ------- 1 1.0 3.1 15 26
+ 4.7744 1 2 tcp 1000 ------- 1 1.0 3.1 16 27
- 4.8064 1 2 tcp 1000 ------- 1 1.0 3.1 16 27
r 4.8264 1 2 tcp 1000 ------- 1 1.0 3.1 15 26
+ 4.8264 2 3 tcp 1000 ------- 1 1.0 3.1 15 26
r 4.8584 1 2 tcp 1000 ------- 1 1.0 3.1 16 27
+ 4.8584 2 3 tcp 1000 ------- 1 1.0 3.1 16 27
- 4.86672 2 3 tcp 1000 ------- 1 1.0 3.1 15 26
r 4.88672 2 3 tcp 1000 ------- 1 1.0 3.1 11 18
+ 4.88672 3 2 ack 40 ------- 1 3.1 1.0 11 28
- 4.88672 3 2 ack 40 ------- 1 3.1 1.0 11 28
r 4.91312 3 2 ack 40 ------- 1 3.1 1.0 8 23
+ 4.91312 2 1 ack 40 ------- 1 3.1 1.0 8 23
- 4.91312 2 1 ack 40 ------- 1 3.1 1.0 8 23
r 4.9344 2 1 ack 40 ------- 1 3.1 1.0 8 23
+ 4.9344 1 2 tcp 1000 ------- 1 1.0 3.1 17 29
- 4.9344 1 2 tcp 1000 ------- 1 1.0 3.1 17 29
+ 4.9344 1 2 tcp 1000 ------- 1 1.0 3.1 18 30
- 4.9664 1 2 tcp 1000 ------- 1 1.0 3.1 18 30
r 4.9864 1 2 tcp 1000 ------- 1 1.0 3.1 17 29
+ 4.9864 2 3 tcp 1000 ------- 1 1.0 3.1 17 29
r 5.0184 1 2 tcp 1000 ------- 1 1.0 3.1 18 30
+ 5.0184 2 3 tcp 1000 ------- 1 1.0 3.1 18 30
- 5.02672 2 3 tcp 1000 ------- 1 1.0 3.1 16 27
r 5.04672 2 3 tcp 1000 ------- 1 1.0 3.1 12 19
+ 5.04672 3 2 ack 40 ------- 1 3.1 1.0 12 31
- 5.04672 3 2 ack 40 ------- 1 3.1 1.0 12 31
r 5.07312 3 2 ack 40 ------- 1 3.1 1.0 9 24
+ 5.07312 2 1 ack 40 ------- 1 3.1 1.0 9 24
- 5.07312 2 1 ack 40 ------- 1 3.1 1.0 9 24
r 5.0944 2 1 ack 40 ------- 1 3.1 1.0 9 24
+ 5.0944 1 2 tcp 1000 ------- 1 1.0 3.1 19 32
- 5.0944 1 2 tcp 1000 ------- 1 1.0 3.1 19 32
r 5.1464 1 2 tcp 1000 ------- 1 1.0 3.1 19 32
+ 5.1464 2 3 tcp 1000 ------- 1 1.0 3.1 19 32
- 5.18672 2 3 tcp 1000 ------- 1 1.0 3.1 17 29
r 5.20672 2 3 tcp 1000 ------- 1 1.0 3.1 13 20
+ 5.20672 3 2 ack 40 ------- 1 3.1 1.0 13 33
- 5.20672 3 2 ack 40 ------- 1 3.1 1.0 13 33
r 5.23312 3 2 ack 40 ------- 1 3.1 1.0 10 25
+ 5.23312 2 1 ack 40 ------- 1 3.1 1.0 10 25
- 5.23312 2 1 ack 40 ------- 1 3.1 1.0 10 25
r 5.2544 2 1 ack 40 ------- 1 3.1 1.0 10 25
+ 5.2544 1 2 tcp 1000 ------- 1 1.0 3.1 20 34
- 5.2544 1 2 tcp 1000 ------- 1 1.0 3.1 20 34
r 5.3064 1 2 tcp 1000 ------- 1 1.0 3.1 20 34
+ 5.3064 2 3 tcp 1000 ------- 1 1.0 3.1 20 34
- 5.34672 2 3 tcp 1000 ------- 1 1.0 3.1 18 30
r 5.36672 2 3 tcp 1000 ------- 1 1.0 3.1 14 21
+ 5.36672 3 2 ack 40 ------- 1 3.1 1.0 14 35
- 5.36672 3 2 ack 40 ------- 1 3.1 1.0 14 35
r 5.39312 3 2 ack 40 ------- 1 3.1 1.0 11 28
+ 5.39312 2 1 ack 40 ------- 1 3.1 1.0 11 28
- 5.39312 2 1 ack 40 ------- 1 3.1 1.0 11 28
r 5.4144 2 1 ack 40 ------- 1 3.1 1.0 11 28
+ 5.4144 1 2 tcp 1000 ------- 1 1.0 3.1 21 36
- 5.4144 1 2 tcp 1000 ------- 1 1.0 3.1 21 36
r 5.4664 1 2 tcp 1000 ------- 1 1.0 3.1 21 36
+ 5.4664 2 3 tcp 1000 ------- 1 1.0 3.1 21 36
- 5.50672 2 3 tcp 1000 ------- 1 1.0 3.1 19 32
r 5.52672 2 3 tcp 1000 ------- 1 1.0 3.1 15 26
+ 5.52672 3 2 ack 40 ------- 1 3.1 1.0 15 37
- 5.52672 3 2 ack 40 ------- 1 3.1 1.0 15 37
r 5.55312 3 2 ack 40 ------- 1 3.1 1.0 12 31
+ 5.55312 2 1 ack 40 ------- 1 3.1 1.0 12 31
- 5.55312 2 1 ack 40 ------- 1 3.1 1.0 12 31
r 5.5744 2 1 ack 40 ------- 1 3.1 1.0 12 31
+ 5.5744 1 2 tcp 1000 ------- 1 1.0 3.1 22 38
- 5.5744 1 2 tcp 1000 ------- 1 1.0 3.1 22 38
r 5.6264 1 2 tcp 1000 ------- 1 1.0 3.1 22 38
+ 5.6264 2 3 tcp 1000 ------- 1 1.0 3.1 22 38
- 5.66672 2 3 tcp 1000 ------- 1 1.0 3.1 20 34
r 5.68672 2 3 tcp 1000 ------- 1 1.0 3.1 16 27
+ 5.68672 3 2 ack 40 ------- 1 3.1 1.0 16 39
- 5.68672 3 2 ack 40 ------- 1 3.1 1.0 16 39
r 5.71312 3 2 ack 40 ------- 1 3.1 1.0 13 33
+ 5.71312 2 1 ack 40 ------- 1 3.1 1.0 13 33
- 5.71312 2 1 ack 40 ------- 1 3.1 1.0 13 33
r 5.7344 2 1 ack 40 ------- 1 3.1 1.0 13 33
+ 5.7344 1 2 tcp 1000 ------- 1 1.0 3.1 23 40
- 5.7344 1 2 tcp 1000 ------- 1 1.0 3.1 23 40
r 5.7864 1 2 tcp 1000 ------- 1 1.0 3.1 23 40
+ 5.7864 2 3 tcp 1000 ------- 1 1.0 3.1 23 40
- 5.82672 2 3 tcp 1000 ------- 1 1.0 3.1 21 36
r 5.84672 2 3 tcp 1000 ------- 1 1.0 3.1 17 29
+ 5.84672 3 2 ack 40 ------- 1 3.1 1.0 17 41
- 5.84672 3 2 ack 40 ------- 1 3.1 1.0 17 41
r 5.87312 3 2 ack 40 ------- 1 3.1 1.0 14 35
+ 5.87312 2 1 ack 40 ------- 1 3.1 1.0 14 35
- 5.87312 2 1 ack 40 ------- 1 3.1 1.0 14 35
r 5.8944 2 1 ack 40 ------- 1 3.1 1.0 14 35
+ 5.8944 1 2 tcp 1000 ------- 1 1.0 3.1 24 42
- 5.8944 1 2 tcp 1000 ------- 1 1.0 3.1 24 42
r 5.9464 1 2 tcp 1000 ------- 1 1.0 3.1 24 42
+ 5.9464 2 3 tcp 1000 ------- 1 1.0 3.1 24 42
- 5.98672 2 3 tcp 1000 ------- 1 1.0 3.1 22 38
r 6.00672 2 3 tcp 1000 ------- 1 1.0 3.1 18 30
+ 6.00672 3 2 ack 40 ------- 1 3.1 1.0 18 43
- 6.00672 3 2 ack 40 ------- 1 3.1 1.0 18 43
r 6.03312 3 2 ack 40 ------- 1 3.1 1.0 15 37
+ 6.03312 2 1 ack 40 ------- 1 3.1 1.0 15 37
- 6.03312 2 1 ack 40 ------- 1 3.1 1.0 15 37
r 6.0544 2 1 ack 40 ------- 1 3.1 1.0 15 37
+ 6.0544 1 2 tcp 1000 ------- 1 1.0 3.1 25 44
- 6.0544 1 2 tcp 1000 ------- 1 1.0 3.1 25 44
r 6.1064 1 2 tcp 1000 ------- 1 1.0 3.1 25 44
+ 6.1064 2 3 tcp 1000 ------- 1 1.0 3.1 25 44
- 6.14672 2 3 tcp 1000 ------- 1 1.0 3.1 23 40
r 6.16672 2 3 tcp 1000 ------- 1 1.0 3.1 19 32
+ 6.16672 3 2 ack 40 ------- 1 3.1 1.0 19 45
- 6.16672 3 2 ack 40 ------- 1 3.1 1.0 19 45
r 6.19312 3 2 ack 40 ------- 1 3.1 1.0 16 39
+ 6.19312 2 1 ack 40 ------- 1 3.1 1.0 16 39
- 6.19312 2 1 ack 40 ------- 1 3.1 1.0 16 39
r 6.2144 2 1 ack 40 ------- 1 3.1 1.0 16 39
+ 6.2144 1 2 tcp 1000 ------- 1 1.0 3.1 26 46
- 6.2144 1 2 tcp 1000 ------- 1 1.0 3.1 26 46
r 6.2664 1 2 tcp 1000 ------- 1 1.0 3.1 26 46
+ 6.2664 2 3 tcp 1000 ------- 1 1.0 3.1 26 46
- 6.30672 2 3 tcp 1000 ------- 1 1.0 3.1 24 42
r 6.32672 2 3 tcp 1000 ------- 1 1.0 3.1 20 34
+ 6.32672 3 2 ack 40 ------- 1 3.1 1.0 20 47
- 6.32672 3 2 ack 40 ------- 1 3.1 1.0 20 47
r 6.35312 3 2 ack 40 ------- 1 3.1 1.0 17 41
+ 6.35312 2 1 ack 40 ------- 1 3.1 1.0 17 41
- 6.35312 2 1 ack 40 ------- 1 3.1 1.0 17 41
r 6.3744 2 1 ack 40 ------- 1 3.1 1.0 17 41
+ 6.3744 1 2 tcp 1000 ------- 1 1.0 3.1 27 48
- 6.3744 1 2 tcp 1000 ------- 1 1.0 3.1 27 48
r 6.4264 1 2 tcp 1000 ------- 1 1.0 3.1 27 48
+ 6.4264 2 3 tcp 1000 ------- 1 1.0 3.1 27 48
- 6.46672 2 3 tcp 1000 ------- 1 1.0 3.1 25 44
r 6.48672 2 3 tcp 1000 ------- 1 1.0 3.1 21 36
+ 6.48672 3 2 ack 40 ------- 1 3.1 1.0 21 49
- 6.48672 3 2 ack 40 ------- 1 3.1 1.0 21 49
r 6.51312 3 2 ack 40 ------- 1 3.1 1.0 18 43
+ 6.51312 2 1 ack 40 ------- 1 3.1 1.0 18 43
- 6.51312 2 1 ack 40 ------- 1 3.1 1.0 18 43
r 6.5344 2 1 ack 40 ------- 1 3.1 1.0 18 43
+ 6.5344 1 2 tcp 1000 ------- 1 1.0 3.1 28 50
- 6.5344 1 2 tcp 1000 ------- 1 1.0 3.1 28 50
r 6.5864 1 2 tcp 1000 ------- 1 1.0 3.1 28 50
+ 6.5864 2 3 tcp 1000 ------- 1 1.0 3.1 28 50
- 6.62672 2 3 tcp 1000 ------- 1 1.0 3.1 26 46
r 6.64672 2 3 tcp 1000 ------- 1 1.0 3.1 22 38
+ 6.64672 3 2 ack 40 ------- 1 3.1 1.0 22 51
- 6.64672 3 2 ack 40 ------- 1 3.1 1.0 22 51
r 6.67312 3 2 ack 40 ------- 1 3.1 1.0 19 45
+ 6.67312 2 1 ack 40 ------- 1 3.1 1.0 19 45
- 6.67312 2 1 ack 40 ------- 1 3.1 1.0 19 45
r 6.6944 2 1 ack 40 ------- 1 3.1 1.0 19 45
+ 6.6944 1 2 tcp 1000 ------- 1 1.0 3.1 29 52
- 6.6944 1 2 tcp 1000 ------- 1 1.0 3.1 29 52
r 6.7464 1 2 tcp 1000 ------- 1 1.0 3.1 29 52
+ 6.7464 2 3 tcp 1000 ------- 1 1.0 3.1 29 52
- 6.78672 2 3 tcp 1000 ------- 1 1.0 3.1 27 48
r 6.80672 2 3 tcp 1000 ------- 1 1.0 3.1 23 40
+ 6.80672 3 2 ack 40 ------- 1 3.1 1.0 23 53
- 6.80672 3 2 ack 40 ------- 1 3.1 1.0 23 53
r 6.83312 3 2 ack 40 ------- 1 3.1 1.0 20 47
+ 6.83312 2 1 ack 40 ------- 1 3.1 1.0 20 47
- 6.83312 2 1 ack 40 ------- 1 3.1 1.0 20 47
r 6.8544 2 1 ack 40 ------- 1 3.1 1.0 20 47
+ 6.8544 1 2 tcp 1000 ------- 1 1.0 3.1 30 54
- 6.8544 1 2 tcp 1000 ------- 1 1.0 3.1 30 54
r 6.9064 1 2 tcp 1000 ------- 1 1.0 3.1 30 54
+ 6.9064 2 3 tcp 1000 ------- 1 1.0 3.1 30 54
- 6.94672 2 3 tcp 1000 ------- 1 1.0 3.1 28 50
r 6.96672 2 3 tcp 1000 ------- 1 1.0 3.1 24 42
+ 6.96672 3 2 ack 40 ------- 1 3.1 1.0 24 55
- 6.96672 3 2 ack 40 ------- 1 3.1 1.0 24 55
r 6.99312 3 2 ack 40 ------- 1 3.1 1.0 21 49
+ 6.99312 2 1 ack 40 ------- 1 3.1 1.0 21 49
- 6.99312 2 1 ack 40 ------- 1 3.1 1.0 21 49
r 7.0144 2 1 ack 40 ------- 1 3.1 1.0 21 49
+ 7.0144 1 2 tcp 1000 ------- 1 1.0 3.1 31 56
- 7.0144 1 2 tcp 1000 ------- 1 1.0 3.1 31 56
r 7.0664 1 2 tcp 1000 ------- 1 1.0 3.1 31 56
+ 7.0664 2 3 tcp 1000 ------- 1 1.0 3.1 31 56
- 7.10672 2 3 tcp 1000 ------- 1 1.0 3.1 29 52
r 7.12672 2 3 tcp 1000 ------- 1 1.0 3.1 25 44
+ 7.12672 3 2 ack 40 ------- 1 3.1 1.0 25 57
- 7.12672 3 2 ack 40 ------- 1 3.1 1.0 25 57
r 7.15312 3 2 ack 40 ------- 1 3.1 1.0 22 51
+ 7.15312 2 1 ack 40 ------- 1 3.1 1.0 22 51
- 7.15312 2 1 ack 40 ------- 1 3.1 1.0 22 51
r 7.1744 2 1 ack 40 ------- 1 3.1 1.0 22 51
+ 7.1744 1 2 tcp 1000 ------- 1 1.0 3.1 32 58
- 7.1744 1 2 tcp 1000 ------- 1 1.0 3.1 32 58
r 7.2264 1 2 tcp 1000 ------- 1 1.0 3.1 32 58
+ 7.2264 2 3 tcp 1000 ------- 1 1.0 3.1 32 58
- 7.26672 2 3 tcp 1000 ------- 1 1.0 3.1 30 54
r 7.28672 2 3 tcp 1000 ------- 1 1.0 3.1 26 46
+ 7.28672 3 2 ack 40 ------- 1 3.1 1.0 26 59
- 7.28672 3 2 ack 40 ------- 1 3.1 1.0 26 59
r 7.31312 3 2 ack 40 ------- 1 3.1 1.0 23 53
+ 7.31312 2 1 ack 40 ------- 1 3.1 1.0 23 53
- 7.31312 2 1 ack 40 ------- 1 3.1 1.0 23 53
r 7.3344 2 1 ack 40 ------- 1 3.1 1.0 23 53
+ 7.3344 1 2 tcp 1000 ------- 1 1.0 3.1 33 60
- 7.3344 1 2 tcp 1000 ------- 1 1.0 3.1 33 60
r 7.3864 1 2 tcp 1000 ------- 1 1.0 3.1 33 60
+ 7.3864 2 3 tcp 1000 ------- 1 1.0 3.1 33 60
- 7.42672 2 3 tcp 1000 ------- 1 1.0 3.1 31 56
r 7.44672 2 3 tcp 1000 ------- 1 1.0 3.1 27 48
+ 7.44672 3 2 ack 40 ------- 1 3.1 1.0 27 61
- 7.44672 3 2 ack 40 ------- 1 3.1 1.0 27 61
r 7.47312 3 2 ack 40 ------- 1 3.1 1.0 24 55
+ 7.47312 2 1 ack 40 ------- 1 3.1 1.0 24 55
- 7.47312 2 1 ack 40 ------- 1 3.1 1.0 24 55
r 7.4944 2 1 ack 40 ------- 1 3.1 1.0 24 55
+ 7.4944 1 2 tcp 1000 ------- 1 1.0 3.1 34 62
- 7.4944 1 2 tcp 1000 ------- 1 1.0 3.1 34 62
r 7.5464 1 2 tcp 1000 ------- 1 1.0 3.1 34 62
+ 7.5464 2 3 tcp 1000 ------- 1 1.0 3.1 34 62
- 7.58672 2 3 tcp 1000 ------- 1 1.0 3.1 32 58
r 7.60672 2 3 tcp 1000 ------- 1 1.0 3.1 28 50
+ 7.60672 3 2 ack 40 ------- 1 3.1 1.0 28 63
- 7.60672 3 2 ack 40 ------- 1 3.1 1.0 28 63
r 7.63312 3 2 ack 40 ------- 1 3.1 1.0 25 57
+ 7.63312 2 1 ack 40 ------- 1 3.1 1.0 25 57
- 7.63312 2 1 ack 40 ------- 1 3.1 1.0 25 57
r 7.6544 2 1 ack 40 ------- 1 3.1 1.0 25 57
+ 7.6544 1 2 tcp 1000 ------- 1 1.0 3.1 35 64
- 7.6544 1 2 tcp 1000 ------- 1 1.0 3.1 35 64
r 7.7064 1 2 tcp 1000 ------- 1 1.0 3.1 35 64
+ 7.7064 2 3 tcp 1000 ------- 1 1.0 3.1 35 64
- 7.74672 2 3 tcp 1000 ------- 1 1.0 3.1 33 60
r 7.76672 2 3 tcp 1000 ------- 1 1.0 3.1 29 52
+ 7.76672 3 2 ack 40 ------- 1 3.1 1.0 29 65
- 7.76672 3 2 ack 40 ------- 1 3.1 1.0 29 65
r 7.79312 3 2 ack 40 ------- 1 3.1 1.0 26 59
+ 7.79312 2 1 ack 40 ------- 1 3.1 1.0 26 59
- 7.79312 2 1 ack 40 ------- 1 3.1 1.0 26 59
r 7.8144 2 1 ack 40 ------- 1 3.1 1.0 26 59
+ 7.8144 1 2 tcp 1000 ------- 1 1.0 3.1 36 66
- 7.8144 1 2 tcp 1000 ------- 1 1.0 3.1 36 66
r 7.8664 1 2 tcp 1000 ------- 1 1.0 3.1 36 66
+ 7.8664 2 3 tcp 1000 ------- 1 1.0 3.1 36 66
- 7.90672 2 3 tcp 1000 ------- 1 1.0 3.1 34 62
r 7.92672 2 3 tcp 1000 ------- 1 1.0 3.1 30 54
+ 7.92672 3 2 ack 40 ------- 1 3.1 1.0 30 67
- 7.92672 3 2 ack 40 ------- 1 3.1 1.0 30 67
r 7.95312 3 2 ack 40 ------- 1 3.1 1.0 27 61
+ 7.95312 2 1 ack 40 ------- 1 3.1 1.0 27 61
- 7.95312 2 1 ack 40 ------- 1 3.1 1.0 27 61
r 7.9744 2 1 ack 40 ------- 1 3.1 1.0 27 61
+ 7.9744 1 2 tcp 1000 ------- 1 1.0 3.1 37 68
- 7.9744 1 2 tcp 1000 ------- 1 1.0 3.1 37 68
r 8.0264 1 2 tcp 1000 ------- 1 1.0 3.1 37 68
+ 8.0264 2 3 tcp 1000 ------- 1 1.0 3.1 37 68
- 8.06672 2 3 tcp 1000 ------- 1 1.0 3.1 35 64
r 8.08672 2 3 tcp 1000 ------- 1 1.0 3.1 31 56
+ 8.08672 3 2 ack 40 ------- 1 3.1 1.0 31 69
- 8.08672 3 2 ack 40 ------- 1 3.1 1.0 31 69
r 8.11312 3 2 ack 40 ------- 1 3.1 1.0 28 63
+ 8.11312 2 1 ack 40 ------- 1 3.1 1.0 28 63
- 8.11312 2 1 ack 40 ------- 1 3.1 1.0 28 63
r 8.1344 2 1 ack 40 ------- 1 3.1 1.0 28 63
+ 8.1344 1 2 tcp 1000 ------- 1 1.0 3.1 38 70
- 8.1344 1 2 tcp 1000 ------- 1 1.0 3.1 38 70
r 8.1864 1 2 tcp 1000 ------- 1 1.0 3.1 38 70
+ 8.1864 2 3 tcp 1000 ------- 1 1.0 3.1 38 70
- 8.22672 2 3 tcp 1000 ------- 1 1.0 3.1 36 66
r 8.24672 2 3 tcp 1000 ------- 1 1.0 3.1 32 58
+ 8.24672 3 2 ack 40 ------- 1 3.1 1.0 32 71
- 8.24672 3 2 ack 40 ------- 1 3.1 1.0 32 71
r 8.27312 3 2 ack 40 ------- 1 3.1 1.0 29 65
+ 8.27312 2 1 ack 40 ------- 1 3.1 1.0 29 65
- 8.27312 2 1 ack 40 ------- 1 3.1 1.0 29 65
r 8.2944 2 1 ack 40 ------- 1 3.1 1.0 29 65
+ 8.2944 1 2 tcp 1000 ------- 1 1.0 3.1 39 72
- 8.2944 1 2 tcp 1000 ------- 1 1.0 3.1 39 72
r 8.3464 1 2 tcp 1000 ------- 1 1.0 3.1 39 72
+ 8.3464 2 3 tcp 1000 ------- 1 1.0 3.1 39 72
- 8.38672 2 3 tcp 1000 ------- 1 1.0 3.1 37 68
r 8.40672 2 3 tcp 1000 ------- 1 1.0 3.1 33 60
+ 8.40672 3 2 ack 40 ------- 1 3.1 1.0 33 73
- 8.40672 3 2 ack 40 ------- 1 3.1 1.0 33 73
r 8.43312 3 2 ack 40 ------- 1 3.1 1.0 30 67
+ 8.43312 2 1 ack 40 ------- 1 3.1 1.0 30 67
- 8.43312 2 1 ack 40 ------- 1 3.1 1.0 30 67
r 8.4544 2 1 ack 40 ------- 1 3.1 1.0 30 67
+ 8.4544 1 2 tcp 1000 ------- 1 1.0 3.1 40 74
- 8.4544 1 2 tcp 1000 ------- 1 1.0 3.1 40 74
r 8.5064 1 2 tcp 1000 ------- 1 1.0 3.1 40 74
+ 8.5064 2 3 tcp 1000 ------- 1 1.0 3.1 40 74
- 8.54672 2 3 tcp 1000 ------- 1 1.0 3.1 38 70
r 8.56672 2 3 tcp 1000 ------- 1 1.0 3.1 34 62
+ 8.56672 3 2 ack 40 ------- 1 3.1 1.0 34 75
- 8.56672 3 2 ack 40 ------- 1 3.1 1.0 34 75
r 8.59312 3 2 ack 40 ------- 1 3.1 1.0 31 69
+ 8.59312 2 1 ack 40 ------- 1 3.1 1.0 31 69
- 8.59312 2 1 ack 40 ------- 1 3.1 1.0 31 69
r 8.6144 2 1 ack 40 ------- 1 3.1 1.0 31 69
+ 8.6144 1 2 tcp 1000 ------- 1 1.0 3.1 41 76
- 8.6144 1 2 tcp 1000 ------- 1 1.0 3.1 41 76
r 8.6664 1 2 tcp 1000 ------- 1 1.0 3.1 41 76
+ 8.6664 2 3 tcp 1000 ------- 1 1.0 3.1 41 76
- 8.70672 2 3 tcp 1000 ------- 1 1.0 3.1 39 72
r 8.72672 2 3 tcp 1000 ------- 1 1.0 3.1 35 64
+ 8.72672 3 2 ack 40 ------- 1 3.1 1.0 35 77
- 8.72672 3 2 ack 40 ------- 1 3.1 1.0 35 77
r 8.75312 3 2 ack 40 ------- 1 3.1 1.0 32 71
+ 8.75312 2 1 ack 40 ------- 1 3.1 1.0 32 71
- 8.75312 2 1 ack 40 ------- 1 3.1 1.0 32 71
r 8.7744 2 1 ack 40 ------- 1 3.1 1.0 32 71
+ 8.7744 1 2 tcp 1000 ------- 1 1.0 3.1 42 78
- 8.7744 1 2 tcp 1000 ------- 1 1.0 3.1 42 78
r 8.8264 1 2 tcp 1000 ------- 1 1.0 3.1 42 78
+ 8.8264 2 3 tcp 1000 ------- 1 1.0 3.1 42 78
- 8.86672 2 3 tcp 1000 ------- 1 1.0 3.1 40 74
r 8.88672 2 3 tcp 1000 ------- 1 1.0 3.1 36 66
+ 8.88672 3 2 ack 40 ------- 1 3.1 1.0 36 79
- 8.88672 3 2 ack 40 ------- 1 3.1 1.0 36 79
r 8.91312 3 2 ack 40 ------- 1 3.1 1.0 33 73
+ 8.91312 2 1 ack 40 ------- 1 3.1 1.0 33 73
- 8.91312 2 1 ack 40 ------- 1 3.1 1.0 33 73
r 8.9344 2 1 ack 40 ------- 1 3.1 1.0 33 73
+ 8.9344 1 2 tcp 1000 ------- 1 1.0 3.1 43 80
- 8.9344 1 2 tcp 1000 ------- 1 1.0 3.1 43 80
r 8.9864 1 2 tcp 1000 ------- 1 1.0 3.1 43 80
+ 8.9864 2 3 tcp 1000 ------- 1 1.0 3.1 43 80
- 9.02672 2 3 tcp 1000 ------- 1 1.0 3.1 41 76
r 9.04672 2 3 tcp 1000 ------- 1 1.0 3.1 37 68
+ 9.04672 3 2 ack 40 ------- 1 3.1 1.0 37 81
- 9.04672 3 2 ack 40 ------- 1 3.1 1.0 37 81
r 9.07312 3 2 ack 40 ------- 1 3.1 1.0 34 75
+ 9.07312 2 1 ack 40 ------- 1 3.1 1.0 34 75
- 9.07312 2 1 ack 40 ------- 1 3.1 1.0 34 75
r 9.0944 2 1 ack 40 ------- 1 3.1 1.0 34 75
+ 9.0944 1 2 tcp 1000 ------- 1 1.0 3.1 44 82
- 9.0944 1 2 tcp 1000 ------- 1 1.0 3.1 44 82
r 9.1464 1 2 tcp 1000 ------- 1 1.0 3.1 44 82
+ 9.1464 2 3 tcp 1000 ------- 1 1.0 3.1 44 82
- 9.18672 2 3 tcp 1000 ------- 1 1.0 3.1 42 78
r 9.20672 2 3 tcp 1000 ------- 1 1.0 3.1 38 70
+ 9.20672 3 2 ack 40 ------- 1 3.1 1.0 38 83
- 9.20672 3 2 ack 40 ------- 1 3.1 1.0 38 83
r 9.23312 3 2 ack 40 ------- 1 3.1 1.0 35 77
+ 9.23312 2 1 ack 40 ------- 1 3.1 1.0 35 77
- 9.23312 2 1 ack 40 ------- 1 3.1 1.0 35 77
r 9.2544 2 1 ack 40 ------- 1 3.1 1.0 35 77
+ 9.2544 1 2 tcp 1000 ------- 1 1.0 3.1 45 84
- 9.2544 1 2 tcp 1000 ------- 1 1.0 3.1 45 84
r 9.3064 1 2 tcp 1000 ------- 1 1.0 3.1 45 84
+ 9.3064 2 3 tcp 1000 ------- 1 1.0 3.1 45 84
- 9.34672 2 3 tcp 1000 ------- 1 1.0 3.1 43 80
r 9.36672 2 3 tcp 1000 ------- 1 1.0 3.1 39 72
+ 9.36672 3 2 ack 40 ------- 1 3.1 1.0 39 85
- 9.36672 3 2 ack 40 ------- 1 3.1 1.0 39 85
r 9.39312 3 2 ack 40 ------- 1 3.1 1.0 36 79
+ 9.39312 2 1 ack 40 ------- 1 3.1 1.0 36 79
- 9.39312 2 1 ack 40 ------- 1 3.1 1.0 36 79
r 9.4144 2 1 ack 40 ------- 1 3.1 1.0 36 79
+ 9.4144 1 2 tcp 1000 ------- 1 1.0 3.1 46 86
- 9.4144 1 2 tcp 1000 ------- 1 1.0 3.1 46 86
r 9.4664 1 2 tcp 1000 ------- 1 1.0 3.1 46 86
+ 9.4664 2 3 tcp 1000 ------- 1 1.0 3.1 46 86
- 9.50672 2 3 tcp 1000 ------- 1 1.0 3.1 44 82
r 9.52672 2 3 tcp 1000 ------- 1 1.0 3.1 40 74
+ 9.52672 3 2 ack 40 ------- 1 3.1 1.0 40 87
- 9.52672 3 2 ack 40 ------- 1 3.1 1.0 40 87
r 9.55312 3 2 ack 40 ------- 1 3.1 1.0 37 81
+ 9.55312 2 1 ack 40 ------- 1 3.1 1.0 37 81
- 9.55312 2 1 ack 40 ------- 1 3.1 1.0 37 81
r 9.5744 2 1 ack 40 ------- 1 3.1 1.0 37 81
+ 9.5744 1 2 tcp 1000 ------- 1 1.0 3.1 47 88
- 9.5744 1 2 tcp 1000 ------- 1 1.0 3.1 47 88
r 9.6264 1 2 tcp 1000 ------- 1 1.0 3.1 47 88
+ 9.6264 2 3 tcp 1000 ------- 1 1.0 3.1 47 88
- 9.66672 2 3 tcp 1000 ------- 1 1.0 3.1 45 84
r 9.68672 2 3 tcp 1000 ------- 1 1.0 3.1 41 76
+ 9.68672 3 2 ack 40 ------- 1 3.1 1.0 41 89
- 9.68672 3 2 ack 40 ------- 1 3.1 1.0 41 89
r 9.71312 3 2 ack 40 ------- 1 3.1 1.0 38 83
+ 9.71312 2 1 ack 40 ------- 1 3.1 1.0 38 83
- 9.71312 2 1 ack 40 ------- 1 3.1 1.0 38 83
r 9.7344 2 1 ack 40 ------- 1 3.1 1.0 38 83
+ 9.7344 1 2 tcp 1000 ------- 1 1.0 3.1 48 90
- 9.7344 1 2 tcp 1000 ------- 1 1.0 3.1 48 90
r 9.7864 1 2 tcp 1000 ------- 1 1.0 3.1 48 90
+ 9.7864 2 3 tcp 1000 ------- 1 1.0 3.1 48 90
- 9.82672 2 3 tcp 1000 ------- 1 1.0 3.1 46 86
r 9.84672 2 3 tcp 1000 ------- 1 1.0 3.1 42 78
+ 9.84672 3 2 ack 40 ------- 1 3.1 1.0 42 91
- 9.84672 3 2 ack 40 ------- 1 3.1 1.0 42 91
r 9.87312 3 2 ack 40 ------- 1 3.1 1.0 39 85
+ 9.87312 2 1 ack 40 ------- 1 3.1 1.0 39 85
- 9.87312 2 1 ack 40 ------- 1 3.1 1.0 39 85
r 9.8944 2 1 ack 40 ------- 1 3.1 1.0 39 85
+ 9.8944 1 2 tcp 1000 ------- 1 1.0 3.1 49 92
- 9.8944 1 2 tcp 1000 ------- 1 1.0 3.1 49 92
r 9.9464 1 2 tcp 1000 ------- 1 1.0 3.1 49 92
+ 9.9464 2 3 tcp 1000 ------- 1 1.0 3.1 49 92
- 9.98672 2 3 tcp 1000 ------- 1 1.0 3.1 47 88
r 10.00672 2 3 tcp 1000 ------- 1 1.0 3.1 43 80
+ 10.00672 3 2 ack 40 ------- 1 3.1 1.0 43 93
- 10.00672 3 2 ack 40 ------- 1 3.1 1.0 43 93
r 10.03312 3 2 ack 40 ------- 1 3.1 1.0 40 87
+ 10.03312 2 1 ack 40 ------- 1 3.1 1.0 40 87
- 10.03312 2 1 ack 40 ------- 1 3.1 1.0 40 87
r 10.0544 2 1 ack 40 ------- 1 3.1 1.0 40 87
+ 10.0544 1 2 tcp 1000 ------- 1 1.0 3.1 50 94
- 10.0544 1 2 tcp 1000 ------- 1 1.0 3.1 50 94
r 10.1064 1 2 tcp 1000 ------- 1 1.0 3.1 50 94
+ 10.1064 2 3 tcp 1000 ------- 1 1.0 3.1 50 94
- 10.14672 2 3 tcp 1000 ------- 1 1.0 3.1 48 90
r 10.16672 2 3 tcp 1000 ------- 1 1.0 3.1 44 82
+ 10.16672 3 2 ack 40 ------- 1 3.1 1.0 44 95
- 10.16672 3 2 ack 40 ------- 1 3.1 1.0 44 95
r 10.19312 3 2 ack 40 ------- 1 3.1 1.0 41 89
+ 10.19312 2 1 ack 40 ------- 1 3.1 1.0 41 89
- 10.19312 2 1 ack 40 ------- 1 3.1 1.0 41 89
r 10.2144 2 1 ack 40 ------- 1 3.1 1.0 41 89
+ 10.2144 1 2 tcp 1000 ------- 1 1.0 3.1 51 96
- 10.2144 1 2 tcp 1000 ------- 1 1.0 3.1 51 96
r 10.2664 1 2 tcp 1000 ------- 1 1.0 3.1 51 96
+ 10.2664 2 3 tcp 1000 ------- 1 1.0 3.1 51 96
- 10.30672 2 3 tcp 1000 ------- 1 1.0 3.1 49 92
r 10.32672 2 3 tcp 1000 ------- 1 1.0 3.1 45 84
+ 10.32672 3 2 ack 40 ------- 1 3.1 1.0 45 97
- 10.32672 3 2 ack 40 ------- 1 3.1 1.0 45 97
r 10.35312 3 2 ack 40 ------- 1 3.1 1.0 42 91
+ 10.35312 2 1 ack 40 ------- 1 3.1 1.0 42 91
- 10.35312 2 1 ack 40 ------- 1 3.1 1.0 42 91
r 10.3744 2 1 ack 40 ------- 1 3.1 1.0 42 91
+ 10.3744 1 2 tcp 1000 ------- 1 1.0 3.1 52 98
- 10.3744 1 2 tcp 1000 ------- 1 1.0 3.1 52 98
r 10.4264 1 2 tcp 1000 ------- 1 1.0 3.1 52 98
+ 10.4264 2 3 tcp 1000 ------- 1 1.0 3.1 52 98
- 10.46672 2 3 tcp 1000 ------- 1 1.0 3.1 50 94
r 10.48672 2 3 tcp 1000 ------- 1 1.0 3.1 46 86
+ 10.48672 3 2 ack 40 ------- 1 3.1 1.0 46 99
- 10.48672 3 2 ack 40 ------- 1 3.1 1.0 46 99
r 10.51312 3 2 ack 40 ------- 1 3.1 1.0 43 93
+ 10.51312 2 1 ack 40 ------- 1 3.1 1.0 43 93
- 10.51312 2 1 ack 40 ------- 1 3.1 1.0 43 93
r 10.5344 2 1 ack 40 ------- 1 3.1 1.0 43 93
+ 10.5344 1 2 tcp 1000 ------- 1 1.0 3.1 53 100
- 10.5344 1 2 tcp 1000 ------- 1 1.0 3.1 53 100
r 10.5864 1 2 tcp 1000 ------- 1 1.0 3.1 53 100
+ 10.5864 2 3 tcp 1000 ------- 1 1.0 3.1 53 100
- 10.62672 2 3 tcp 1000 ------- 1 1.0 3.1 51 96
r 10.64672 2 3 tcp 1000 ------- 1 1.0 3.1 47 88
+ 10.64672 3 2 ack 40 ------- 1 3.1 1.0 47 101
- 10.64672 3 2 ack 40 ------- 1 3.1 1.0 47 101
r 10.67312 3 2 ack 40 ------- 1 3.1 1.0 44 95
+ 10.67312 2 1 ack 40 ------- 1 3.1 1.0 44 95
- 10.67312 2 1 ack 40 ------- 1 3.1 1.0 44 95
r 10.6944 2 1 ack 40 ------- 1 3.1 1.0 44 95
+ 10.6944 1 2 tcp 1000 ------- 1 1.0 3.1 54 102
- 10.6944 1 2 tcp 1000 ------- 1 1.0 3.1 54 102
r 10.7464 1 2 tcp 1000 ------- 1 1.0 3.1 54 102
+ 10.7464 2 3 tcp 1000 ------- 1 1.0 3.1 54 102
- 10.78672 2 3 tcp 1000 ------- 1 1.0 3.1 52 98
r 10.80672 2 3 tcp 1000 ------- 1 1.0 3.1 48 90
+ 10.80672 3 2 ack 40 ------- 1 3.1 1.0 48 103
- 10.80672 3 2 ack 40 ------- 1 3.1 1.0 48 103
r 10.83312 3 2 ack 40 ------- 1 3.1 1.0 45 97
+ 10.83312 2 1 ack 40 ------- 1 3.1 1.0 45 97
- 10.83312 2 1 ack 40 ------- 1 3.1 1.0 45 97
r 10.8544 2 1 ack 40 ------- 1 3.1 1.0 45 97
+ 10.8544 1 2 tcp 1000 ------- 1 1.0 3.1 55 104
- 10.8544 1 2 tcp 1000 ------- 1 1.0 3.1 55 104
r 10.9064 1 2 tcp 1000 ------- 1 1.0 3.1 55 104
+ 10.9064 2 3 tcp 1000 ------- 1 1.0 3.1 55 104
- 10.94672 2 3 tcp 1000 ------- 1 1.0 3.1 53 100
r 10.96672 2 3 tcp 1000 ------- 1 1.0 3.1 49 92
+ 10.96672 3 2 ack 40 ------- 1 3.1 1.0 49 105
- 10.96672 3 2 ack 40 ------- 1 3.1 1.0 49 105
r 10.99312 3 2 ack 40 ------- 1 3.1 1.0 46 99
+ 10.99312 2 1 ack 40 ------- 1 3.1 1.0 46 99
- 10.99312 2 1 ack 40 ------- 1 3.1 1.0 46 99
r 11.0144 2 1 ack 40 ------- 1 3.1 1.0 46 99
+ 11.0144 1 2 tcp 1000 ------- 1 1.0 3.1 56 106
- 11.0144 1 2 tcp 1000 ------- 1 1.0 3.1 56 106
r 11.0664 1 2 tcp 1000 ------- 1 1.0 3.1 56 106
+ 11.0664 2 3 tcp 1000 ------- 1 1.0 3.1 56 106
- 11.10672 2 3 tcp 1000 ------- 1 1.0 3.1 54 102
r 11.12672 2 3 tcp 1000 ------- 1 1.0 3.1 50 94
+ 11.12672 3 2 ack 40 ------- 1 3.1 1.0 50 107
- 11.12672 3 2 ack 40 ------- 1 3.1 1.0 50 107
r 11.15312 3 2 ack 40 ------- 1 3.1 1.0 47 101
+ 11.15312 2 1 ack 40 ------- 1 3.1 1.0 47 101
- 11.15312 2 1 ack 40 ------- 1 3.1 1.0 47 101
r 11.1744 2 1 ack 40 ------- 1 3.1 1.0 47 101
+ 11.1744 1 2 tcp 1000 ------- 1 1.0 3.1 57 108
- 11.1744 1 2 tcp 1000 ------- 1 1.0 3.1 57 108
r 11.2264 1 2 tcp 1000 ------- 1 1.0 3.1 57 108
+ 11.2264 2 3 tcp 1000 ------- 1 1.0 3.1 57 108
- 11.26672 2 3 tcp 1000 ------- 1 1.0 3.1 55 104
r 11.28672 2 3 tcp 1000 ------- 1 1.0 3.1 51 96
+ 11.28672 3 2 ack 40 ------- 1 3.1 1.0 51 109
- 11.28672 3 2 ack 40 ------- 1 3.1 1.0 51 109
r 11.31312 3 2 ack 40 ------- 1 3.1 1.0 48 103
+ 11.31312 2 1 ack 40 ------- 1 3.1 1.0 48 103
- 11.31312 2 1 ack 40 ------- 1 3.1 1.0 48 103
r 11.3344 2 1 ack 40 ------- 1 3.1 1.0 48 103
+ 11.3344 1 2 tcp 1000 ------- 1 1.0 3.1 58 110
- 11.3344 1 2 tcp 1000 ------- 1 1.0 3.1 58 110
r 11.3864 1 2 tcp 1000 ------- 1 1.0 3.1 58 110
+ 11.3864 2 3 tcp 1000 ------- 1 1.0 3.1 58 110
- 11.42672 2 3 tcp 1000 ------- 1 1.0 3.1 56 106
r 11.44672 2 3 tcp 1000 ------- 1 1.0 3.1 52 98
+ 11.44672 3 2 ack 40 ------- 1 3.1 1.0 52 111
- 11.44672 3 2 ack 40 ------- 1 3.1 1.0 52 111
r 11.47312 3 2 ack 40 ------- 1 3.1 1.0 49 105
+ 11.47312 2 1 ack 40 ------- 1 3.1 1.0 49 105
- 11.47312 2 1 ack 40 ------- 1 3.1 1.0 49 105
r 11.4944 2 1 ack 40 ------- 1 3.1 1.0 49 105
+ 11.4944 1 2 tcp 1000 ------- 1 1.0 3.1 59 112
- 11.4944 1 2 tcp 1000 ------- 1 1.0 3.1 59 112
r 11.5464 1 2 tcp 1000 ------- 1 1.0 3.1 59 112
+ 11.5464 2 3 tcp 1000 ------- 1 1.0 3.1 59 112