+ 0 1 2 tcp 40 ------- 1 1.0 3.1 0 0
- 0 1 2 tcp 40 ------- 1 1.0 3.1 0 0
r 0.02128 1 2 tcp 40 ------- 1 1.0 3.1 0 0
+ 0.02128 2 3 tcp 40 ------- 1 1.0 3.1 0 0
- 0.02128 2 3 tcp 40 ------- 1 1.0 3.1 0 0
r 0.52768 2 3 tcp 40 ------- 1 1.0 3.1 0 0
+ 0.52768 3 2 ack 40 ------- 1 3.1 1.0 0 1
- 0.52768 3 2 ack 40 ------- 1 3.1 1.0 0 1
r 1.03408 3 2 ack 40 ------- 1 3.1 1.0 0 1
+ 1.03408 2 1 ack 40 ------- 1 3.1 1.0 0 1
- 1.03408 2 1 ack 40 ------- 1 3.1 1.0 0 1
r 1.05536 2 1 ack 40 ------- 1 3.1 1.0 0 1
+ 1.05536 1 2 tcp 1040 ------- 1 1.0 3.1 1 2
- 1.05536 1 2 tcp 1040 ------- 1 1.0 3.1 1 2
+ 1.05536 1 2 tcp 1040 ------- 1 1.0 3.1 2 3
- 1.08864 1 2 tcp 1040 ------- 1 1.0 3.1 2 3
r 1.10864 1 2 tcp 1040 ------- 1 1.0 3.1 1 2
+ 1.10864 2 3 tcp 1040 ------- 1 1.0 3.1 1 2
- 1.10864 2 3 tcp 1040 ------- 1 1.0 3.1 1 2
r 1.14192 1 2 tcp 1040 ------- 1 1.0 3.1 2 3
+ 1.14192 2 3 tcp 1040 ------- 1 1.0 3.1 2 3
- 1.27504 2 3 tcp 1040 ------- 1 1.0 3.1 2 3
r 1.77504 2 3 tcp 1040 ------- 1 1.0 3.1 1 2
+ 1.77504 3 2 ack 40 ------- 1 3.1 1.0 1 4
- 1.77504 3 2 ack 40 ------- 1 3.1 1.0 1 4
r 1.94144 2 3 tcp 1040 ------- 1 1.0 3.1 2 3
+ 1.94144 3 2 ack 40 ------- 1 3.1 1.0 2 5
- 1.94144 3 2 ack 40 ------- 1 3.1 1.0 2 5
r 2.28144 3 2 ack 40 ------- 1 3.1 1.0 1 4
+ 2.28144 2 1 ack 40 ------- 1 3.1 1.0 1 4
- 2.28144 2 1 ack 40 ------- 1 3.1 1.0 1 4
r 2.30272 2 1 ack 40 ------- 1 3.1 1.0 1 4
+ 2.30272 1 2 tcp 1040 ------- 1 1.0 3.1 3 6
- 2.30272 1 2 tcp 1040 ------- 1 1.0 3.1 3 6
+ 2.30272 1 2 tcp 1040 ------- 1 1.0 3.1 4 7
- 2.336 1 2 tcp 1040 ------- 1 1.0 3.1 4 7
r 2.356 1 2 tcp 1040 ------- 1 1.0 3.1 3 6
+ 2.356 2 3 tcp 1040 ------- 1 1.0 3.1 3 6
- 2.356 2 3 tcp 1040 ------- 1 1.0 3.1 3 6
r 2.38928 1 2 tcp 1040 ------- 1 1.0 3.1 4 7
+ 2.38928 2 3 tcp 1040 ------- 1 1.0 3.1 4 7
r 2.44784 3 2 ack 40 ------- 1 3.1 1.0 2 5
+ 2.44784 2 1 ack 40 ------- 1 3.1 1.0 2 5
- 2.44784 2 1 ack 40 ------- 1 3.1 1.0 2 5
r 2.46912 2 1 ack 40 ------- 1 3.1 1.0 2 5
+ 2.46912 1 2 tcp 1040 ------- 1 1.0 3.1 5 8
- 2.46912 1 2 tcp 1040 ------- 1 1.0 3.1 5 8
+ 2.46912 1 2 tcp 1040 ------- 1 1.0 3.1 6 9
- 2.5024 1 2 tcp 1040 ------- 1 1.0 3.1 6 9
r 2.5224 1 2 tcp 1040 ------- 1 1.0 3.1 5 8
+ 2.5224 2 3 tcp 1040 ------- 1 1.0 3.1 5 8
- 2.5224 2 3 tcp 1040 ------- 1 1.0 3.1 4 7
r 2.55568 1 2 tcp 1040 ------- 1 1.0 3.1 6 9
+ 2.55568 2 3 tcp 1040 ------- 1 1.0 3.1 6 9
- 2.6888 2 3 tcp 1040 ------- 1 1.0 3.1 5 8
- 2.8552 2 3 tcp 1040 ------- 1 1.0 3.1 6 9
r 3.0224 2 3 tcp 1040 ------- 1 1.0 3.1 3 6
+ 3.0224 3 2 ack 40 ------- 1 3.1 1.0 3 10
- 3.0224 3 2 ack 40 ------- 1 3.1 1.0 3 10
r 3.1888 2 3 tcp 1040 ------- 1 1.0 3.1 4 7
+ 3.1888 3 2 ack 40 ------- 1 3.1 1.0 4 11
- 3.1888 3 2 ack 40 ------- 1 3.1 1.0 4 11
r 3.3552 2 3 tcp 1040 ------- 1 1.0 3.1 5 8
+ 3.3552 3 2 ack 40 ------- 1 3.1 1.0 5 12
- 3.3552 3 2 ack 40 ------- 1 3.1 1.0 5 12
r 3.5216 2 3 tcp 1040 ------- 1 1.0 3.1 6 9
+ 3.5216 3 2 ack 40 ------- 1 3.1 1.0 6 13
- 3.5216 3 2 ack 40 ------- 1 3.1 1.0 6 13
r 3.5288 3 2 ack 40 ------- 1 3.1 1.0 3 10
+ 3.5288 2 1 ack 40 ------- 1 3.1 1.0 3 10
- 3.5288 2 1 ack 40 ------- 1 3.1 1.0 3 10
r 3.55008 2 1 ack 40 ------- 1 3.1 1.0 3 10
+ 3.55008 1 2 tcp 1040 ------- 1 1.0 3.1 7 14
- 3.55008 1 2 tcp 1040 ------- 1 1.0 3.1 7 14
+ 3.55008 1 2 tcp 1040 ------- 1 1.0 3.1 8 15
- 3.58336 1 2 tcp 1040 ------- 1 1.0 3.1 8 15
r 3.60336 1 2 tcp 1040 ------- 1 1.0 3.1 7 14
+ 3.60336 2 3 tcp 1040 ------- 1 1.0 3.1 7 14
- 3.60336 2 3 tcp 1040 ------- 1 1.0 3.1 7 14
r 3.63664 1 2 tcp 1040 ------- 1 1.0 3.1 8 15
+ 3.63664 2 3 tcp 1040 ------- 1 1.0 3.1 8 15
r 3.6952 3 2 ack 40 ------- 1 3.1 1.0 4 11
+ 3.6952 2 1 ack 40 ------- 1 3.1 1.0 4 11
- 3.6952 2 1 ack 40 ------- 1 3.1 1.0 4 11
r 3.71648 2 1 ack 40 ------- 1 3.1 1.0 4 11
+ 3.71648 1 2 tcp 1040 ------- 1 1.0 3.1 9 16
- 3.71648 1 2 tcp 1040 ------- 1 1.0 3.1 9 16
+ 3.71648 1 2 tcp 1040 ------- 1 1.0 3.1 10 17
- 3.74976 1 2 tcp 1040 ------- 1 1.0 3.1 10 17
- 3.76976 2 3 tcp 1040 ------- 1 1.0 3.1 8 15
r 3.76976 1 2 tcp 1040 ------- 1 1.0 3.1 9 16
+ 3.76976 2 3 tcp 1040 ------- 1 1.0 3.1 9 16
r 3.80304 1 2 tcp 1040 ------- 1 1.0 3.1 10 17
+ 3.80304 2 3 tcp 1040 ------- 1 1.0 3.1 10 17
r 3.8616 3 2 ack 40 ------- 1 3.1 1.0 5 12
+ 3.8616 2 1 ack 40 ------- 1 3.1 1.0 5 12
- 3.8616 2 1 ack 40 ------- 1 3.1 1.0 5 12
r 3.88288 2 1 ack 40 ------- 1 3.1 1.0 5 12
+ 3.88288 1 2 tcp 1040 ------- 1 1.0 3.1 11 18
- 3.88288 1 2 tcp 1040 ------- 1 1.0 3.1 11 18
+ 3.88288 1 2 tcp 1040 ------- 1 1.0 3.1 12 19
- 3.91616 1 2 tcp 1040 ------- 1 1.0 3.1 12 19
- 3.93616 2 3 tcp 1040 ------- 1 1.0 3.1 9 16
r 3.93616 1 2 tcp 1040 ------- 1 1.0 3.1 11 18
+ 3.93616 2 3 tcp 1040 ------- 1 1.0 3.1 11 18
r 3.96944 1 2 tcp 1040 ------- 1 1.0 3.1 12 19
+ 3.96944 2 3 tcp 1040 ------- 1 1.0 3.1 12 19
r 4.028 3 2 ack 40 ------- 1 3.1 1.0 6 13
+ 4.028 2 1 ack 40 ------- 1 3.1 1.0 6 13
- 4.028 2 1 ack 40 ------- 1 3.1 1.0 6 13
r 4.04928 2 1 ack 40 ------- 1 3.1 1.0 6 13
+ 4.04928 1 2 tcp 1040 ------- 1 1.0 3.1 13 20
- 4.04928 1 2 tcp 1040 ------- 1 1.0 3.1 13 20
+ 4.04928 1 2 tcp 1040 ------- 1 1.0 3.1 14 21
- 4.08256 1 2 tcp 1040 ------- 1 1.0 3.1 14 21
- 4.10256 2 3 tcp 1040 ------- 1 1.0 3.1 10 17
r 4.10256 1 2 tcp 1040 ------- 1 1.0 3.1 13 20
+ 4.10256 2 3 tcp 1040 ------- 1 1.0 3.1 13 20
r 4.13584 1 2 tcp 1040 ------- 1 1.0 3.1 14 21
+ 4.13584 2 3 tcp 1040 ------- 1 1.0 3.1 14 21
- 4.26896 2 3 tcp 1040 ------- 1 1.0 3.1 11 18
r 4.26976 2 3 tcp 1040 ------- 1 1.0 3.1 7 14
+ 4.26976 3 2 ack 40 ------- 1 3.1 1.0 7 22
- 4.26976 3 2 ack 40 ------- 1 3.1 1.0 7 22
- 4.43536 2 3 tcp 1040 ------- 1 1.0 3.1 12 19
r 4.43616 2 3 tcp 1040 ------- 1 1.0 3.1 8 15
+ 4.43616 3 2 ack 40 ------- 1 3.1 1.0 8 23
- 4.43616 3 2 ack 40 ------- 1 3.1 1.0 8 23
- 4.60176 2 3 tcp 1040 ------- 1 1.0 3.1 13 20
r 4.60256 2 3 tcp 1040 ------- 1 1.0 3.1 9 16
+ 4.60256 3 2 ack 40 ------- 1 3.1 1.0 9 24
- 4.60256 3 2 ack 40 ------- 1 3.1 1.0 9 24
- 4.76816 2 3 tcp 1040 ------- 1 1.0 3.1 14 21
r 4.76896 2 3 tcp 1040 ------- 1 1.0 3.1 10 17
+ 4.76896 3 2 ack 40 ------- 1 3.1 1.0 10 25
- 4.76896 3 2 ack 40 ------- 1 3.1 1.0 10 25
r 4.77616 3 2 ack 40 ------- 1 3.1 1.0 7 22
+ 4.77616 2 1 ack 40 ------- 1 3.1 1.0 7 22
- 4.77616 2 1 ack 40 ------- 1 3.1 1.0 7 22
r 4.79744 2 1 ack 40 ------- 1 3.1 1.0 7 22
+ 4.79744 1 2 tcp 1040 ------- 1 1.0 3.1 15 26
- 4.79744 1 2 tcp 1040 ------- 1 1.0 3.1 15 26
+ 4.79744 1 2 tcp 1040 ------- 1 1.0 3.1 16 27
- 4.83072 1 2 tcp 1040 ------- 1 1.0 3.1 16 27
r 4.85072 1 2 tcp 1040 ------- 1 1.0 3.1 15 26
+ 4.85072 2 3 tcp 1040 ------- 1 1.0 3.1 15 26
r 4.884 1 2 tcp 1040 ------- 1 1.0 3.1 16 27
+ 4.884 2 3 tcp 1040 ------- 1 1.0 3.1 16 27
- 4.93456 2 3 tcp 1040 ------- 1 1.0 3.1 15 26
r 4.93536 2 3 tcp 1040 ------- 1 1.0 3.1 11 18
+ 4.93536 3 2 ack 40 ------- 1 3.1 1.0 11 28
- 4.93536 3 2 ack 40 ------- 1 3.1 1.0 11 28
r 4.94256 3 2 ack 40 ------- 1 3.1 1.0 8 23
+ 4.94256 2 1 ack 40 ------- 1 3.1 1.0 8 23
- 4.94256 2 1 ack 40 ------- 1 3.1 1.0 8 23
r 4.96384 2 1 ack 40 ------- 1 3.1 1.0 8 23
+ 4.96384 1 2 tcp 1040 ------- 1 1.0 3.1 17 29
- 4.96384 1 2 tcp 1040 ------- 1 1.0 3.1 17 29
+ 4.96384 1 2 tcp 1040 ------- 1 1.0 3.1 18 30
- 4.99712 1 2 tcp 1040 ------- 1 1.0 3.1 18 30
r 5.01712 1 2 tcp 1040 ------- 1 1.0 3.1 17 29
+ 5.01712 2 3 tcp 1040 ------- 1 1.0 3.1 17 29
r 5.0504 1 2 tcp 1040 ------- 1 1.0 3.1 18 30
+ 5.0504 2 3 tcp 1040 ------- 1 1.0 3.1 18 30
- 5.10096 2 3 tcp 1040 ------- 1 1.0 3.1 16 27
r 5.10176 2 3 tcp 1040 ------- 1 1.0 3.1 12 19
+ 5.10176 3 2 ack 40 ------- 1 3.1 1.0 12 31
- 5.10176 3 2 ack 40 ------- 1 3.1 1.0 12 31
r 5.10896 3 2 ack 40 ------- 1 3.1 1.0 9 24
+ 5.10896 2 1 ack 40 ------- 1 3.1 1.0 9 24
- 5.10896 2 1 ack 40 ------- 1 3.1 1.0 9 24
r 5.13024 2 1 ack 40 ------- 1 3.1 1.0 9 24
+ 5.13024 1 2 tcp 1040 ------- 1 1.0 3.1 19 32
- 5.13024 1 2 tcp 1040 ------- 1 1.0 3.1 19 32
r 5.18352 1 2 tcp 1040 ------- 1 1.0 3.1 19 32
+ 5.18352 2 3 tcp 1040 ------- 1 1.0 3.1 19 32
- 5.26736 2 3 tcp 1040 ------- 1 1.0 3.1 17 29
r 5.26816 2 3 tcp 1040 ------- 1 1.0 3.1 13 20
+ 5.26816 3 2 ack 40 ------- 1 3.1 1.0 13 33
- 5.26816 3 2 ack 40 ------- 1 3.1 1.0 13 33
r 5.27536 3 2 ack 40 ------- 1 3.1 1.0 10 25
+ 5.27536 2 1 ack 40 ------- 1 3.1 1.0 10 25
- 5.27536 2 1 ack 40 ------- 1 3.1 1.0 10 25
r 5.29664 2 1 ack 40 ------- 1 3.1 1.0 10 25
+ 5.29664 1 2 tcp 1040 ------- 1 1.0 3.1 20 34
- 5.29664 1 2 tcp 1040 ------- 1 1.0 3.1 20 34
r 5.34992 1 2 tcp 1040 ------- 1 1.0 3.1 20 34
+ 5.34992 2 3 tcp 1040 ------- 1 1.0 3.1 20 34
- 5.43376 2 3 tcp 1040 ------- 1 1.0 3.1 18 30
r 5.43456 2 3 tcp 1040 ------- 1 1.0 3.1 14 21
+ 5.43456 3 2 ack 40 ------- 1 3.1 1.0 14 35
- 5.43456 3 2 ack 40 ------- 1 3.1 1.0 14 35
r 5.44176 3 2 ack 40 ------- 1 3.1 1.0 11 28
+ 5.44176 2 1 ack 40 ------- 1 3.1 1.0 11 28
- 5.44176 2 1 ack 40 ------- 1 3.1 1.0 11 28
r 5.46304 2 1 ack 40 ------- 1 3.1 1.0 11 28
+ 5.46304 1 2 tcp 1040 ------- 1 1.0 3.1 21 36
- 5.46304 1 2 tcp 1040 ------- 1 1.0 3.1 21 36
r 5.51632 1 2 tcp 1040 ------- 1 1.0 3.1 21 36
+ 5.51632 2 3 tcp 1040 ------- 1 1.0 3.1 21 36
- 5.60016 2 3 tcp 1040 ------- 1 1.0 3.1 19 32
r 5.60096 2 3 tcp 1040 ------- 1 1.0 3.1 15 26
+ 5.60096 3 2 ack 40 ------- 1 3.1 1.0 15 37
- 5.60096 3 2 ack 40 ------- 1 3.1 1.0 15 37
r 5.60816 3 2 ack 40 ------- 1 3.1 1.0 12 31
+ 5.60816 2 1 ack 40 ------- 1 3.1 1.0 12 31
- 5.60816 2 1 ack 40 ------- 1 3.1 1.0 12 31
r 5.62944 2 1 ack 40 ------- 1 3.1 1.0 12 31
+ 5.62944 1 2 tcp 1040 ------- 1 1.0 3.1 22 38
- 5.62944 1 2 tcp 1040 ------- 1 1.0 3.1 22 38
r 5.68272 1 2 tcp 1040 ------- 1 1.0 3.1 22 38
+ 5.68272 2 3 tcp 1040 ------- 1 1.0 3.1 22 38
- 5.76656 2 3 tcp 1040 ------- 1 1.0 3.1 20 34
r 5.76736 2 3 tcp 1040 ------- 1 1.0 3.1 16 27
+ 5.76736 3 2 ack 40 ------- 1 3.1 1.0 16 39
- 5.76736 3 2 ack 40 ------- 1 3.1 1.0 16 39
r 5.77456 3 2 ack 40 ------- 1 3.1 1.0 13 33
+ 5.77456 2 1 ack 40 ------- 1 3.1 1.0 13 33
- 5.77456 2 1 ack 40 ------- 1 3.1 1.0 13 33
r 5.79584 2 1 ack 40 ------- 1 3.1 1.0 13 33
+ 5.79584 1 2 tcp 1040 ------- 1 1.0 3.1 23 40
- 5.79584 1 2 tcp 1040 ------- 1 1.0 3.1 23 40
r 5.84912 1 2 tcp 1040 ------- 1 1.0 3.1 23 40
+ 5.84912 2 3 tcp 1040 ------- 1 1.0 3.1 23 40
- 5.93296 2 3 tcp 1040 ------- 1 1.0 3.1 21 36
r 5.93376 2 3 tcp 1040 ------- 1 1.0 3.1 17 29
+ 5.93376 3 2 ack 40 ------- 1 3.1 1.0 17 41
- 5.93376 3 2 ack 40 ------- 1 3.1 1.0 17 41
r 5.94096 3 2 ack 40 ------- 1 3.1 1.0 14 35
+ 5.94096 2 1 ack 40 ------- 1 3.1 1.0 14 35
- 5.94096 2 1 ack 40 ------- 1 3.1 1.0 14 35
r 5.96224 2 1 ack 40 ------- 1 3.1 1.0 14 35
+ 5.96224 1 2 tcp 1040 ------- 1 1.0 3.1 24 42
- 5.96224 1 2 tcp 1040 ------- 1 1.0 3.1 24 42
r 6.01552 1 2 tcp 1040 ------- 1 1.0 3.1 24 42
+ 6.01552 2 3 tcp 1040 ------- 1 1.0 3.1 24 42
- 6.09936 2 3 tcp 1040 ------- 1 1.0 3.1 22 38
r 6.10016 2 3 tcp 1040 ------- 1 1.0 3.1 18 30
+ 6.10016 3 2 ack 40 ------- 1 3.1 1.0 18 43
- 6.10016 3 2 ack 40 ------- 1 3.1 1.0 18 43
r 6.10736 3 2 ack 40 ------- 1 3.1 1.0 15 37
+ 6.10736 2 1 ack 40 ------- 1 3.1 1.0 15 37
- 6.10736 2 1 ack 40 ------- 1 3.1 1.0 15 37
r 6.12864 2 1 ack 40 ------- 1 3.1 1.0 15 37
+ 6.12864 1 2 tcp 1040 ------- 1 1.0 3.1 25 44
- 6.12864 1 2 tcp 1040 ------- 1 1.0 3.1 25 44
r 6.18192 1 2 tcp 1040 ------- 1 1.0 3.1 25 44
+ 6.18192 2 3 tcp 1040 ------- 1 1.0 3.1 25 44
- 6.26576 2 3 tcp 1040 ------- 1 1.0 3.1 23 40
r 6.26656 2 3 tcp 1040 ------- 1 1.0 3.1 19 32
+ 6.26656 3 2 ack 40 ------- 1 3.1 1.0 19 45
- 6.26656 3 2 ack 40 ------- 1 3.1 1.0 19 45
r 6.27376 3 2 ack 40 ------- 1 3.1 1.0 16 39
+ 6.27376 2 1 ack 40 ------- 1 3.1 1.0 16 39
- 6.27376 2 1 ack 40 ------- 1 3.1 1.0 16 39
r 6.29504 2 1 ack 40 ------- 1 3.1 1.0 16 39
+ 6.29504 1 2 tcp 1040 ------- 1 1.0 3.1 26 46
- 6.29504 1 2 tcp 1040 ------- 1 1.0 3.1 26 46
r 6.34832 1 2 tcp 1040 ------- 1 1.0 3.1 26 46
+ 6.34832 2 3 tcp 1040 ------- 1 1.0 3.1 26 46
- 6.43216 2 3 tcp 1040 ------- 1 1.0 3.1 24 42
r 6.43296 2 3 tcp 1040 ------- 1 1.0 3.1 20 34
+ 6.43296 3 2 ack 40 ------- 1 3.1 1.0 20 47
- 6.43296 3 2 ack 40 ------- 1 3.1 1.0 20 47
r 6.44016 3 2 ack 40 ------- 1 3.1 1.0 17 41
+ 6.44016 2 1 ack 40 ------- 1 3.1 1.0 17 41
- 6.44016 2 1 ack 40 ------- 1 3.1 1.0 17 41
r 6.46144 2 1 ack 40 ------- 1 3.1 1.0 17 41
+ 6.46144 1 2 tcp 1040 ------- 1 1.0 3.1 27 48
- 6.46144 1 2 tcp 1040 ------- 1 1.0 3.1 27 48
r 6.51472 1 2 tcp 1040 ------- 1 1.0 3.1 27 48
+ 6.51472 2 3 tcp 1040 ------- 1 1.0 3.1 27 48
- 6.59856 2 3 tcp 1040 ------- 1 1.0 3.1 25 44
r 6.59936 2 3 tcp 1040 ------- 1 1.0 3.1 21 36
+ 6.59936 3 2 ack 40 ------- 1 3.1 1.0 21 49
- 6.59936 3 2 ack 40 ------- 1 3.1 1.0 21 49
r 6.60656 3 2 ack 40 ------- 1 3.1 1.0 18 43
+ 6.60656 2 1 ack 40 ------- 1 3.1 1.0 18 43
- 6.60656 2 1 ack 40 ------- 1 3.1 1.0 18 43
r 6.62784 2 1 ack 40 ------- 1 3.1 1.0 18 43
+ 6.62784 1 2 tcp 1040 ------- 1 1.0 3.1 28 50
- 6.62784 1 2 tcp 1040 ------- 1 1.0 3.1 28 50
r 6.68112 1 2 tcp 1040 ------- 1 1.0 3.1 28 50
+ 6.68112 2 3 tcp 1040 ------- 1 1.0 3.1 28 50
- 6.76496 2 3 tcp 1040 ------- 1 1.0 3.1 26 46
r 6.76576 2 3 tcp 1040 ------- 1 1.0 3.1 22 38
+ 6.76576 3 2 ack 40 ------- 1 3.1 1.0 22 51
- 6.76576 3 2 ack 40 ------- 1 3.1 1.0 22 51
r 6.77296 3 2 ack 40 ------- 1 3.1 1.0 19 45
+ 6.77296 2 1 ack 40 ------- 1 3.1 1.0 19 45
- 6.77296 2 1 ack 40 ------- 1 3.1 1.0 19 45
r 6.79424 2 1 ack 40 ------- 1 3.1 1.0 19 45
+ 6.79424 1 2 tcp 1040 ------- 1 1.0 3.1 29 52
- 6.79424 1 2 tcp 1040 ------- 1 1.0 3.1 29 52
r 6.84752 1 2 tcp 1040 ------- 1 1.0 3.1 29 52
+ 6.84752 2 3 tcp 1040 ------- 1 1.0 3.1 29 52
- 6.93136 2 3 tcp 1040 ------- 1 1.0 3.1 27 48
r 6.93216 2 3 tcp 1040 ------- 1 1.0 3.1 23 40
+ 6.93216 3 2 ack 40 ------- 1 3.1 1.0 23 53
- 6.93216 3 2 ack 40 ------- 1 3.1 1.0 23 53
r 6.93936 3 2 ack 40 ------- 1 3.1 1.0 20 47
+ 6.93936 2 1 ack 40 ------- 1 3.1 1.0 20 47
- 6.93936 2 1 ack 40 ------- 1 3.1 1.0 20 47
r 6.96064 2 1 ack 40 ------- 1 3.1 1.0 20 47
+ 6.96064 1 2 tcp 1040 ------- 1 1.0 3.1 30 54
- 6.96064 1 2 tcp 1040 ------- 1 1.0 3.1 30 54
r 7.01392 1 2 tcp 1040 ------- 1 1.0 3.1 30 54
+ 7.01392 2 3 tcp 1040 ------- 1 1.0 3.1 30 54
- 7.09776 2 3 tcp 1040 ------- 1 1.0 3.1 28 50
r 7.09856 2 3 tcp 1040 ------- 1 1.0 3.1 24 42
+ 7.09856 3 2 ack 40 ------- 1 3.1 1.0 24 55
- 7.09856 3 2 ack 40 ------- 1 3.1 1.0 24 55
r 7.10576 3 2 ack 40 ------- 1 3.1 1.0 21 49
+ 7.10576 2 1 ack 40 ------- 1 3.1 1.0 21 49
- 7.10576 2 1 ack 40 ------- 1 3.1 1.0 21 49
r 7.12704 2 1 ack 40 ------- 1 3.1 1.0 21 49
+ 7.12704 1 2 tcp 1040 ------- 1 1.0 3.1 31 56
- 7.12704 1 2 tcp 1040 ------- 1 1.0 3.1 31 56
r 7.18032 1 2 tcp 1040 ------- 1 1.0 3.1 31 56
+ 7.18032 2 3 tcp 1040 ------- 1 1.0 3.1 31 56
- 7.26416 2 3 tcp 1040 ------- 1 1.0 3.1 29 52
r 7.26496 2 3 tcp 1040 ------- 1 1.0 3.1 25 44
+ 7.26496 3 2 ack 40 ------- 1 3.1 1.0 25 57
- 7.26496 3 2 ack 40 ------- 1 3.1 1.0 25 57
r 7.27216 3 2 ack 40 ------- 1 3.1 1.0 22 51
+ 7.27216 2 1 ack 40 ------- 1 3.1 1.0 22 51
- 7.27216 2 1 ack 40 ------- 1 3.1 1.0 22 51
r 7.29344 2 1 ack 40 ------- 1 3.1 1.0 22 51
+ 7.29344 1 2 tcp 1040 ------- 1 1.0 3.1 32 58
- 7.29344 1 2 tcp 1040 ------- 1 1.0 3.1 32 58
r 7.34672 1 2 tcp 1040 ------- 1 1.0 3.1 32 58
+ 7.34672 2 3 tcp 1040 ------- 1 1.0 3.1 32 58
- 7.43056 2 3 tcp 1040 ------- 1 1.0 3.1 30 54
r 7.43136 2 3 tcp 1040 ------- 1 1.0 3.1 26 46
+ 7.43136 3 2 ack 40 ------- 1 3.1 1.0 26 59
- 7.43136 3 2 ack 40 ------- 1 3.1 1.0 26 59
r 7.43856 3 2 ack 40 ------- 1 3.1 1.0 23 53
+ 7.43856 2 1 ack 40 ------- 1 3.1 1.0 23 53
- 7.43856 2 1 ack 40 ------- 1 3.1 1.0 23 53
r 7.45984 2 1 ack 40 ------- 1 3.1 1.0 23 53
+ 7.45984 1 2 tcp 1040 ------- 1 1.0 3.1 33 60
- 7.45984 1 2 tcp 1040 ------- 1 1.0 3.1 33 60
r 7.51312 1 2 tcp 1040 ------- 1 1.0 3.1 33 60
+ 7.51312 2 3 tcp 1040 ------- 1 1.0 3.1 33 60
- 7.59696 2 3 tcp 1040 ------- 1 1.0 3.1 31 56
r 7.59776 2 3 tcp 1040 ------- 1 1.0 3.1 27 48
+ 7.59776 3 2 ack 40 ------- 1 3.1 1.0 27 61
- 7.59776 3 2 ack 40 ------- 1 3.1 1.0 27 61
r 7.60496 3 2 ack 40 ------- 1 3.1 1.0 24 55
+ 7.60496 2 1 ack 40 ------- 1 3.1 1.0 24 55
- 7.60496 2 1 ack 40 ------- 1 3.1 1.0 24 55
r 7.62624 2 1 ack 40 ------- 1 3.1 1.0 24 55
+ 7.62624 1 2 tcp 1040 ------- 1 1.0 3.1 34 62
- 7.62624 1 2 tcp 1040 ------- 1 1.0 3.1 34 62
r 7.67952 1 2 tcp 1040 ------- 1 1.0 3.1 34 62
+ 7.67952 2 3 tcp 1040 ------- 1 1.0 3.1 34 62
- 7.76336 2 3 tcp 1040 ------- 1 1.0 3.1 32 58
r 7.76416 2 3 tcp 1040 ------- 1 1.0 3.1 28 50
+ 7.76416 3 2 ack 40 ------- 1 3.1 1.0 28 63
- 7.76416 3 2 ack 40 ------- 1 3.1 1.0 28 63
r 7.77136 3 2 ack 40 ------- 1 3.1 1.0 25 57
+ 7.77136 2 1 ack 40 ------- 1 3.1 1.0 25 57
- 7.77136 2 1 ack 40 ------- 1 3.1 1.0 25 57
r 7.79264 2 1 ack 40 ------- 1 3.1 1.0 25 57
+ 7.79264 1 2 tcp 1040 ------- 1 1.0 3.1 35 64
- 7.79264 1 2 tcp 1040 ------- 1 1.0 3.1 35 64
r 7.84592 1 2 tcp 1040 ------- 1 1.0 3.1 35 64
+ 7.84592 2 3 tcp 1040 ------- 1 1.0 3.1 35 64
- 7.92976 2 3 tcp 1040 ------- 1 1.0 3.1 33 60
r 7.93056 2 3 tcp 1040 ------- 1 1.0 3.1 29 52
+ 7.93056 3 2 ack 40 ------- 1 3.1 1.0 29 65
- 7.93056 3 2 ack 40 ------- 1 3.1 1.0 29 65
r 7.93776 3 2 ack 40 ------- 1 3.1 1.0 26 59
+ 7.93776 2 1 ack 40 ------- 1 3.1 1.0 26 59
- 7.93776 2 1 ack 40 ------- 1 3.1 1.0 26 59
r 7.95904 2 1 ack 40 ------- 1 3.1 1.0 26 59
+ 7.95904 1 2 tcp 1040 ------- 1 1.0 3.1 36 66
- 7.95904 1 2 tcp 1040 ------- 1 1.0 3.1 36 66
r 8.01232 1 2 tcp 1040 ------- 1 1.0 3.1 36 66
+ 8.01232 2 3 tcp 1040 ------- 1 1.0 3.1 36 66
- 8.09616 2 3 tcp 1040 ------- 1 1.0 3.1 34 62
r 8.09696 2 3 tcp 1040 ------- 1 1.0 3.1 30 54
+ 8.09696 3 2 ack 40 ------- 1 3.1 1.0 30 67
- 8.09696 3 2 ack 40 ------- 1 3.1 1.0 30 67
r 8.10416 3 2 ack 40 ------- 1 3.1 1.0 27 61
+ 8.10416 2 1 ack 40 ------- 1 3.1 1.0 27 61
- 8.10416 2 1 ack 40 ------- 1 3.1 1.0 27 61
r 8.12544 2 1 ack 40 ------- 1 3.1 1.0 27 61
+ 8.12544 1 2 tcp 1040 ------- 1 1.0 3.1 37 68
- 8.12544 1 2 tcp 1040 ------- 1 1.0 3.1 37 68
r 8.17872 1 2 tcp 1040 ------- 1 1.0 3.1 37 68
+ 8.17872 2 3 tcp 1040 ------- 1 1.0 3.1 37 68
- 8.26256 2 3 tcp 1040 ------- 1 1.0 3.1 35 64
r 8.26336 2 3 tcp 1040 ------- 1 1.0 3.1 31 56
+ 8.26336 3 2 ack 40 ------- 1 3.1 1.0 31 69
- 8.26336 3 2 ack 40 ------- 1 3.1 1.0 31 69
r 8.27056 3 2 ack 40 ------- 1 3.1 1.0 28 63
+ 8.27056 2 1 ack 40 ------- 1 3.1 1.0 28 63
- 8.27056 2 1 ack 40 ------- 1 3.1 1.0 28 63
r 8.29184 2 1 ack 40 ------- 1 3.1 1.0 28 63
+ 8.29184 1 2 tcp 1040 ------- 1 1.0 3.1 38 70
- 8.29184 1 2 tcp 1040 ------- 1 1.0 3.1 38 70
r 8.34512 1 2 tcp 1040 ------- 1 1.0 3.1 38 70
+ 8.34512 2 3 tcp 1040 ------- 1 1.0 3.1 38 70
- 8.42896 2 3 tcp 1040 ------- 1 1.0 3.1 36 66
r 8.42976 2 3 tcp 1040 ------- 1 1.0 3.1 32 58
+ 8.42976 3 2 ack 40 ------- 1 3.1 1.0 32 71
- 8.42976 3 2 ack 40 ------- 1 3.1 1.0 32 71
r 8.43696 3 2 ack 40 ------- 1 3.1 1.0 29 65
+ 8.43696 2 1 ack 40 ------- 1 3.1 1.0 29 65
- 8.43696 2 1 ack 40 ------- 1 3.1 1.0 29 65
r 8.45824 2 1 ack 40 ------- 1 3.1 1.0 29 65
+ 8.45824 1 2 tcp 1040 ------- 1 1.0 3.1 39 72
- 8.45824 1 2 tcp 1040 ------- 1 1.0 3.1 39 72
r 8.51152 1 2 tcp 1040 ------- 1 1.0 3.1 39 72
+ 8.51152 2 3 tcp 1040 ------- 1 1.0 3.1 39 72
- 8.59536 2 3 tcp 1040 ------- 1 1.0 3.1 37 68
r 8.59616 2 3 tcp 1040 ------- 1 1.0 3.1 33 60
+ 8.59616 3 2 ack 40 ------- 1 3.1 1.0 33 73
- 8.59616 3 2 ack 40 ------- 1 3.1 1.0 33 73
r 8.60336 3 2 ack 40 ------- 1 3.1 1.0 30 67
+ 8.60336 2 1 ack 40 ------- 1 3.1 1.0 30 67
- 8.60336 2 1 ack 40 ------- 1 3.1 1.0 30 67
r 8.62464 2 1 ack 40 ------- 1 3.1 1.0 30 67
+ 8.62464 1 2 tcp 1040 ------- 1 1.0 3.1 40 74
- 8.62464 1 2 tcp 1040 ------- 1 1.0 3.1 40 74
r 8.67792 1 2 tcp 1040 ------- 1 1.0 3.1 40 74
+ 8.67792 2 3 tcp 1040 ------- 1 1.0 3.1 40 74
- 8.76176 2 3 tcp 1040 ------- 1 1.0 3.1 38 70
r 8.76256 2 3 tcp 1040 ------- 1 1.0 3.1 34 62
+ 8.76256 3 2 ack 40 ------- 1 3.1 1.0 34 75
- 8.76256 3 2 ack 40 ------- 1 3.1 1.0 34 75
r 8.76976 3 2 ack 40 ------- 1 3.1 1.0 31 69
+ 8.76976 2 1 ack 40 ------- 1 3.1 1.0 31 69
- 8.76976 2 1 ack 40 ------- 1 3.1 1.0 31 69
r 8.79104 2 1 ack 40 ------- 1 3.1 1.0 31 69
+ 8.79104 1 2 tcp 1040 ------- 1 1.0 3.1 41 76
- 8.79104 1 2 tcp 1040 ------- 1 1.0 3.1 41 76
r 8.84432 1 2 tcp 1040 ------- 1 1.0 3.1 41 76
+ 8.84432 2 3 tcp 1040 ------- 1 1.0 3.1 41 76
- 8.92816 2 3 tcp 1040 ------- 1 1.0 3.1 39 72
r 8.92896 2 3 tcp 1040 ------- 1 1.0 3.1 35 64
+ 8.92896 3 2 ack 40 ------- 1 3.1 1.0 35 77
- 8.92896 3 2 ack 40 ------- 1 3.1 1.0 35 77
r 8.93616 3 2 ack 40 ------- 1 3.1 1.0 32 71
+ 8.93616 2 1 ack 40 ------- 1 3.1 1.0 32 71
- 8.93616 2 1 ack 40 ------- 1 3.1 1.0 32 71
r 8.95744 2 1 ack 40 ------- 1 3.1 1.0 32 71
+ 8.95744 1 2 tcp 1040 ------- 1 1.0 3.1 42 78
- 8.95744 1 2 tcp 1040 ------- 1 1.0 3.1 42 78
r 9.01072 1 2 tcp 1040 ------- 1 1.0 3.1 42 78
+ 9.01072 2 3 tcp 1040 ------- 1 1.0 3.1 42 78
- 9.09456 2 3 tcp 1040 ------- 1 1.0 3.1 40 74
r 9.09536 2 3 tcp 1040 ------- 1 1.0 3.1 36 66
+ 9.09536 3 2 ack 40 ------- 1 3.1 1.0 36 79
- 9.09536 3 2 ack 40 ------- 1 3.1 1.0 36 79
r 9.10256 3 2 ack 40 ------- 1 3.1 1.0 33 73
+ 9.10256 2 1 ack 40 ------- 1 3.1 1.0 33 73
- 9.10256 2 1 ack 40 ------- 1 3.1 1.0 33 73
r 9.12384 2 1 ack 40 ------- 1 3.1 1.0 33 73
+ 9.12384 1 2 tcp 1040 ------- 1 1.0 3.1 43 80
- 9.12384 1 2 tcp 1040 ------- 1 1.0 3.1 43 80
r 9.17712 1 2 tcp 1040 ------- 1 1.0 3.1 43 80
+ 9.17712 2 3 tcp 1040 ------- 1 1.0 3.1 43 80
- 9.26096 2 3 tcp 1040 ------- 1 1.0 3.1 41 76
r 9.26176 2 3 tcp 1040 ------- 1 1.0 3.1 37 68
+ 9.26176 3 2 ack 40 ------- 1 3.1 1.0 37 81
- 9.26176 3 2 ack 40 ------- 1 3.1 1.0 37 81
r 9.26896 3 2 ack 40 ------- 1 3.1 1.0 34 75
+ 9.26896 2 1 ack 40 ------- 1 3.1 1.0 34 75
- 9.26896 2 1 ack 40 ------- 1 3.1 1.0 34 75
r 9.29024 2 1 ack 40 ------- 1 3.1 1.0 34 75
+ 9.29024 1 2 tcp 1040 ------- 1 1.0 3.1 44 82
- 9.29024 1 2 tcp 1040 ------- 1 1.0 3.1 44 82
r 9.34352 1 2 tcp 1040 ------- 1 1.0 3.1 44 82
+ 9.34352 2 3 tcp 1040 ------- 1 1.0 3.1 44 82
- 9.42736 2 3 tcp 1040 ------- 1 1.0 3.1 42 78
r 9.42816 2 3 tcp 1040 ------- 1 1.0 3.1 38 70
+ 9.42816 3 2 ack 40 ------- 1 3.1 1.0 38 83
- 9.42816 3 2 ack 40 ------- 1 3.1 1.0 38 83
r 9.43536 3 2 ack 40 ------- 1 3.1 1.0 35 77
+ 9.43536 2 1 ack 40 ------- 1 3.1 1.0 35 77
- 9.43536 2 1 ack 40 ------- 1 3.1 1.0 35 77
r 9.45664 2 1 ack 40 ------- 1 3.1 1.0 35 77
+ 9.45664 1 2 tcp 1040 ------- 1 1.0 3.1 45 84
- 9.45664 1 2 tcp 1040 ------- 1 1.0 3.1 45 84
r 9.50992 1 2 tcp 1040 ------- 1 1.0 3.1 45 84
+ 9.50992 2 3 tcp 1040 ------- 1 1.0 3.1 45 84
- 9.59376 2 3 tcp 1040 ------- 1 1.0 3.1 43 80
r 9.59456 2 3 tcp 1040 ------- 1 1.0 3.1 39 72
+ 9.59456 3 2 ack 40 ------- 1 3.1 1.0 39 85
- 9.59456 3 2 ack 40 ------- 1 3.1 1.0 39 85
r 9.60176 3 2 ack 40 ------- 1 3.1 1.0 36 79
+ 9.60176 2 1 ack 40 ------- 1 3.1 1.0 36 79
- 9.60176 2 1 ack 40 ------- 1 3.1 1.0 36 79
r 9.62304 2 1 ack 40 ------- 1 3.1 1.0 36 79
+ 9.62304 1 2 tcp 1040 ------- 1 1.0 3.1 46 86
- 9.62304 1 2 tcp 1040 ------- 1 1.0 3.1 46 86
r 9.67632 1 2 tcp 1040 ------- 1 1.0 3.1 46 86
+ 9.67632 2 3 tcp 1040 ------- 1 1.0 3.1 46 86
- 9.76016 2 3 tcp 1040 ------- 1 1.0 3.1 44 82
r 9.76096 2 3 tcp 1040 ------- 1 1.0 3.1 40 74
+ 9.76096 3 2 ack 40 ------- 1 3.1 1.0 40 87
- 9.76096 3 2 ack 40 ------- 1 3.1 1.0 40 87
r 9.76816 3 2 ack 40 ------- 1 3.1 1.0 37 81
+ 9.76816 2 1 ack 40 ------- 1 3.1 1.0 37 81
- 9.76816 2 1 ack 40 ------- 1 3.1 1.0 37 81
r 9.78944 2 1 ack 40 ------- 1 3.1 1.0 37 81
+ 9.78944 1 2 tcp 1040 ------- 1 1.0 3.1 47 88
- 9.78944 1 2 tcp 1040 ------- 1 1.0 3.1 47 88
r 9.84272 1 2 tcp 1040 ------- 1 1.0 3.1 47 88
+ 9.84272 2 3 tcp 1040 ------- 1 1.0 3.1 47 88
- 9.92656 2 3 tcp 1040 ------- 1 1.0 3.1 45 84
r 9.92736 2 3 tcp 1040 ------- 1 1.0 3.1 41 76
+ 9.92736 3 2 ack 40 ------- 1 3.1 1.0 41 89
- 9.92736 3 2 ack 40 ------- 1 3.1 1.0 41 89
r 9.93456 3 2 ack 40 ------- 1 3.1 1.0 38 83
+ 9.93456 2 1 ack 40 ------- 1 3.1 1.0 38 83
- 9.93456 2 1 ack 40 ------- 1 3.1 1.0 38 83
r 9.95584 2 1 ack 40 ------- 1 3.1 1.0 38 83
+ 9.95584 1 2 tcp 1040 ------- 1 1.0 3.1 48 90
- 9.95584 1 2 tcp 1040 ------- 1 1.0 3.1 48 90
r 10.00912 1 2 tcp 1040 ------- 1 1.0 3.1 48 90
+ 10.00912 2 3 tcp 1040 ------- 1 1.0 3.1 48 90
- 10.09296 2 3 tcp 1040 ------- 1 1.0 3.1 46 86
r 10.09376 2 3 tcp 1040 ------- 1 1.0 3.1 42 78
+ 10.09376 3 2 ack 40 ------- 1 3.1 1.0 42 91
- 10.09376 3 2 ack 40 ------- 1 3.1 1.0 42 91
r 10.10096 3 2 ack 40 ------- 1 3.1 1.0 39 85
+ 10.10096 2 1 ack 40 ------- 1 3.1 1.0 39 85
- 10.10096 2 1 ack 40 ------- 1 3.1 1.0 39 85
r 10.12224 2 1 ack 40 ------- 1 3.1 1.0 39 85
+ 10.12224 1 2 tcp 1040 ------- 1 1.0 3.1 49 92
- 10.12224 1 2 tcp 1040 ------- 1 1.0 3.1 49 92
r 10.17552 1 2 tcp 1040 ------- 1 1.0 3.1 49 92
+ 10.17552 2 3 tcp 1040 ------- 1 1.0 3.1 49 92
- 10.25936 2 3 tcp 1040 ------- 1 1.0 3.1 47 88
r 10.26016 2 3 tcp 1040 ------- 1 1.0 3.1 43 80
+ 10.26016 3 2 ack 40 ------- 1 3.1 1.0 43 93
- 10.26016 3 2 ack 40 ------- 1 3.1 1.0 43 93
r 10.26736 3 2 ack 40 ------- 1 3.1 1.0 40 87
+ 10.26736 2 1 ack 40 ------- 1 3.1 1.0 40 87
- 10.26736 2 1 ack 40 ------- 1 3.1 1.0 40 87
r 10.28864 2 1 ack 40 ------- 1 3.1 1.0 40 87
+ 10.28864 1 2 tcp 1040 ------- 1 1.0 3.1 50 94
- 10.28864 1 2 tcp 1040 ------- 1 1.0 3.1 50 94
r 10.34192 1 2 tcp 1040 ------- 1 1.0 3.1 50 94
+ 10.34192 2 3 tcp 1040 ------- 1 1.0 3.1 50 94
- 10.42576 2 3 tcp 1040 ------- 1 1.0 3.1 48 90
r 10.42656 2 3 tcp 1040 ------- 1 1.0 3.1 44 82
+ 10.42656 3 2 ack 40 ------- 1 3.1 1.0 44 95
- 10.42656 3 2 ack 40 ------- 1 3.1 1.0 44 95
r 10.43376 3 2 ack 40 ------- 1 3.1 1.0 41 89
+ 10.43376 2 1 ack 40 ------- 1 3.1 1.0 41 89
- 10.43376 2 1 ack 40 ------- 1 3.1 1.0 41 89
r 10.45504 2 1 ack 40 ------- 1 3.1 1.0 41 89
+ 10.45504 1 2 tcp 1040 ------- 1 1.0 3.1 51 96
- 10.45504 1 2 tcp 1040 ------- 1 1.0 3.1 51 96
r 10.50832 1 2 tcp 1040 ------- 1 1.0 3.1 51 96
+ 10.50832 2 3 tcp 1040 ------- 1 1.0 3.1 51 96
- 10.59216 2 3 tcp 1040 ------- 1 1.0 3.1 49 92
r 10.59296 2 3 tcp 1040 ------- 1 1.0 3.1 45 84
+ 10.59296 3 2 ack 40 ------- 1 3.1 1.0 45 97
- 10.59296 3 2 ack 40 ------- 1 3.1 1.0 45 97
r 10.60016 3 2 ack 40 ------- 1 3.1 1.0 42 91
+ 10.60016 2 1 ack 40 ------- 1 3.1 1.0 42 91
- 10.60016 2 1 ack 40 ------- 1 3.1 1.0 42 91
r 10.62144 2 1 ack 40 ------- 1 3.1 1.0 42 91
+ 10.62144 1 2 tcp 1040 ------- 1 1.0 3.1 52 98
- 10.62144 1 2 tcp 1040 ------- 1 1.0 3.1 52 98
r 10.67472 1 2 tcp 1040 ------- 1 1.0 3.1 52 98
+ 10.67472 2 3 tcp 1040 ------- 1 1.0 3.1 52 98
- 10.75856 2 3 tcp 1040 ------- 1 1.0 3.1 50 94
r 10.75936 2 3 tcp 1040 ------- 1 1.0 3.1 46 86
+ 10.75936 3 2 ack 40 ------- 1 3.1 1.0 46 99
- 10.75936 3 2 ack 40 ------- 1 3.1 1.0 46 99
r 10.76656 3 2 ack 40 ------- 1 3.1 1.0 43 93
+ 10.76656 2 1 ack 40 ------- 1 3.1 1.0 43 93
- 10.76656 2 1 ack 40 ------- 1 3.1 1.0 43 93
r 10.78784 2 1 ack 40 ------- 1 3.1 1.0 43 93
+ 10.78784 1 2 tcp 1040 ------- 1 1.0 3.1 53 100
- 10.78784 1 2 tcp 1040 ------- 1 1.0 3.1 53 100
r 10.84112 1 2 tcp 1040 ------- 1 1.0 3.1 53 100
+ 10.84112 2 3 tcp 1040 ------- 1 1.0 3.1 53 100
- 10.92496 2 3 tcp 1040 ------- 1 1.0 3.1 51 96
r 10.92576 2 3 tcp 1040 ------- 1 1.0 3.1 47 88
+ 10.92576 3 2 ack 40 ------- 1 3.1 1.0 47 101
- 10.92576 3 2 ack 40 ------- 1 3.1 1.0 47 101
r 10.93296 3 2 ack 40 ------- 1 3.1 1.0 44 95
+ 10.93296 2 1 ack 40 ------- 1 3.1 1.0 44 95
- 10.93296 2 1 ack 40 ------- 1 3.1 1.0 44 95
r 10.95424 2 1 ack 40 ------- 1 3.1 1.0 44 95
+ 10.95424 1 2 tcp 1040 ------- 1 1.0 3.1 54 102
- 10.95424 1 2 tcp 1040 ------- 1 1.0 3.1 54 102
r 11.00752 1 2 tcp 1040 ------- 1 1.0 3.1 54 102
+ 11.00752 2 3 tcp 1040 ------- 1 1.0 3.1 54 102
- 11.09136 2 3 tcp 1040 ------- 1 1.0 3.1 52 98
r 11.09216 2 3 tcp 1040 ------- 1 1.0 3.1 48 90
+ 11.09216 3 2 ack 40 ------- 1 3.1 1.0 48 103
- 11.09216 3 2 ack 40 ------- 1 3.1 1.0 48 103
r 11.09936 3 2 ack 40 ------- 1 3.1 1.0 45 97
+ 11.09936 2 1 ack 40 ------- 1 3.1 1.0 45 97
- 11.09936 2 1 ack 40 ------- 1 3.1 1.0 45 97
r 11.12064 2 1 ack 40 ------- 1 3.1 1.0 45 97
+ 11.12064 1 2 tcp 1040 ------- 1 1.0 3.1 55 104
- 11.12064 1 2 tcp 1040 ------- 1 1.0 3.1 55 104
r 11.17392 1 2 tcp 1040 ------- 1 1.0 3.1 55 104
+ 11.17392 2 3 tcp 1040 ------- 1 1.0 3.1 55 104
- 11.25776 2 3 tcp 1040 ------- 1 1.0 3.1 53 100
r 11.25856 2 3 tcp 1040 ------- 1 1.0 3.1 49 92
+ 11.25856 3 2 ack 40 ------- 1 3.1 1.0 49 105
- 11.25856 3 2 ack 40 ------- 1 3.1 1.0 49 105
r 11.26576 3 2 ack 40 ------- 1 3.1 1.0 46 99
+ 11.26576 2 1 ack 40 ------- 1 3.1 1.0 46 99
- 11.26576 2 1 ack 40 ------- 1 3.1 1.0 46 99
r 11.28704 2 1 ack 40 ------- 1 3.1 1.0 46 99
+ 11.28704 1 2 tcp 1040 ------- 1 1.0 3.1 56 106
- 11.28704 1 2 tcp 1040 ------- 1 1.0 3.1 56 106
r 11.34032 1 2 tcp 1040 ------- 1 1.0 3.1 56 106
+ 11.34032 2 3 tcp 1040 ------- 1 1.0 3.1 56 106
- 11.42416 2 3 tcp 1040 ------- 1 1.0 3.1 54 102
r 11.42496 2 3 tcp 1040 ------- 1 1.0 3.1 50 94
+ 11.42496 3 2 ack 40 ------- 1 3.1 1.0 50 107
- 11.42496 3 2 ack 40 ------- 1 3.1 1.0 50 107
r 11.43216 3 2 ack 40 ------- 1 3.1 1.0 47 101
+ 11.43216 2 1 ack 40 ------- 1 3.1 1.0 47 101
- 11.43216 2 1 ack 40 ------- 1 3.1 1.0 47 101
r 11.45344 2 1 ack 40 ------- 1 3.1 1.0 47 101
+ 11.45344 1 2 tcp 1040 ------- 1 1.0 3.1 57 108
- 11.45344 1 2 tcp 1040 ------- 1 1.0 3.1 57 108
r 11.50672 1 2 tcp 1040 ------- 1 1.0 3.1 57 108
+ 11.50672 2 3 tcp 1040 ------- 1 1.0 3.1 57 108
- 11.59056 2 3 tcp 1040 ------- 1 1.0 3.1 55 104
r 11.59136 2 3 tcp 1040 ------- 1 1.0 3.1 51 96
+ 11.59136 3 2 ack 40 ------- 1 3.1 1.0 51 109
- 11.59136 3 2 ack 40 ------- 1 3.1 1.0 51 109
r 11.59856 3 2 ack 40 ------- 1 3.1 1.0 48 103
+ 11.59856 2 1 ack 40 ------- 1 3.1 1.0 48 103
- 11.59856 2 1 ack 40 ------- 1 3.1 1.0 48 103
r 11.61984 2 1 ack 40 ------- 1 3.1 1.0 48 103
+ 11.61984 1 2 tcp 1040 ------- 1 1.0 3.1 58 110
- 11.61984 1 2 tcp 1040 ------- 1 1.0 3.1 58 110
r 11.67312 1 2 tcp 1040 ------- 1 1.0 3.1 58 110
+ 11.67312 2 3 tcp 1040 ------- 1 1.0 3.1 58 110
- 11.75696 2 3 tcp 1040 ------- 1 1.0 3.1 56 106
r 11.75776 2 3 tcp 1040 ------- 1 1.0 3.1 52 98
+ 11.75776 3 2 ack 40 ------- 1 3.1 1.0 52 111
- 11.75776 3 2 ack 40 ------- 1 3.1 1.0 52 111
r 11.76496 3 2 ack 40 ------- 1 3.1 1.0 49 105
+ 11.76496 2 1 ack 40 ------- 1 3.1 1.0 49 105
- 11.76496 2 1 ack 40 ------- 1 3.1 1.0 49 105
r 11.78624 2 1 ack 40 ------- 1 3.1 1.0 49 105