V -t * -v 1.0a5 -a 0
A -t * -n 1 -p 0 -o 0x7fffffff -c 30 -a 1
A -t * -h 1 -m 1073741823 -s 0
c -t * -i 0 -n Red
c -t * -i 1 -n Blue
n -t * -a 0 -s 0 -S UP -v circle -c black -i black
n -t * -a 1 -s 1 -S UP -v circle -c black -i black
n -t * -a 2 -s 2 -S UP -v circle -c black -i black
n -t * -a 3 -s 3 -S UP -v circle -c black -i black
l -t * -s 0 -d 2 -S UP -r 250000 -D 0.02 -c black -o right-down
l -t * -s 1 -d 2 -S UP -r 250000 -D 0.02 -c black -o right-up
l -t * -s 2 -d 3 -S UP -r 50000 -D 0.5 -c black -o right
q -t * -s 3 -d 2 -a 0.5
q -t * -s 2 -d 3 -a 0.5
+ -t 0 -s 1 -d 2 -p tcp -e 40 -c 1 -i 0 -a 1 -x {1.0 3.1 0 ------- null}
- -t 0 -s 1 -d 2 -p tcp -e 40 -c 1 -i 0 -a 1 -x {1.0 3.1 0 ------- null}
h -t 0 -s 1 -d 2 -p tcp -e 40 -c 1 -i 0 -a 1 -x {1.0 3.1 -1 ------- null}
r -t 0.02128 -s 1 -d 2 -p tcp -e 40 -c 1 -i 0 -a 1 -x {1.0 3.1 0 ------- null}
+ -t 0.02128 -s 2 -d 3 -p tcp -e 40 -c 1 -i 0 -a 1 -x {1.0 3.1 0 ------- null}
- -t 0.02128 -s 2 -d 3 -p tcp -e 40 -c 1 -i 0 -a 1 -x {1.0 3.1 0 ------- null}
h -t 0.02128 -s 2 -d 3 -p tcp -e 40 -c 1 -i 0 -a 1 -x {1.0 3.1 -1 ------- null}
r -t 0.52768 -s 2 -d 3 -p tcp -e 40 -c 1 -i 0 -a 1 -x {1.0 3.1 0 ------- null}
+ -t 0.52768 -s 3 -d 2 -p ack -e 40 -c 1 -i 1 -a 1 -x {3.1 1.0 0 ------- null}
- -t 0.52768 -s 3 -d 2 -p ack -e 40 -c 1 -i 1 -a 1 -x {3.1 1.0 0 ------- null}
h -t 0.52768 -s 3 -d 2 -p ack -e 40 -c 1 -i 1 -a 1 -x {3.1 1.0 -1 ------- null}
r -t 1.03408 -s 3 -d 2 -p ack -e 40 -c 1 -i 1 -a 1 -x {3.1 1.0 0 ------- null}
+ -t 1.03408 -s 2 -d 1 -p ack -e 40 -c 1 -i 1 -a 1 -x {3.1 1.0 0 ------- null}
- -t 1.03408 -s 2 -d 1 -p ack -e 40 -c 1 -i 1 -a 1 -x {3.1 1.0 0 ------- null}
h -t 1.03408 -s 2 -d 1 -p ack -e 40 -c 1 -i 1 -a 1 -x {3.1 1.0 -1 ------- null}
r -t 1.05536 -s 2 -d 1 -p ack -e 40 -c 1 -i 1 -a 1 -x {3.1 1.0 0 ------- null}
+ -t 1.05536 -s 1 -d 2 -p tcp -e 1040 -c 1 -i 2 -a 1 -x {1.0 3.1 1 ------- null}
- -t 1.05536 -s 1 -d 2 -p tcp -e 1040 -c 1 -i 2 -a 1 -x {1.0 3.1 1 ------- null}
h -t 1.05536 -s 1 -d 2 -p tcp -e 1040 -c 1 -i 2 -a 1 -x {1.0 3.1 -1 ------- null}
+ -t 1.05536 -s 1 -d 2 -p tcp -e 1040 -c 1 -i 3 -a 1 -x {1.0 3.1 2 ------- null}
- -t 1.08864 -s 1 -d 2 -p tcp -e 1040 -c 1 -i 3 -a 1 -x {1.0 3.1 2 ------- null}
h -t 1.08864 -s 1 -d 2 -p tcp -e 1040 -c 1 -i 3 -a 1 -x {1.0 3.1 -1 ------- null}
r -t 1.10864 -s 1 -d 2 -p tcp -e 1040 -c 1 -i 2 -a 1 -x {1.0 3.1 1 ------- null}
+ -t 1.10864 -s 2 -d 3 -p tcp -e 1040 -c 1 -i 2 -a 1 -x {1.0 3.1 1 ------- null}
- -t 1.10864 -s 2 -d 3 -p tcp -e 1040 -c 1 -i 2 -a 1 -x {1.0 3.1 1 ------- null}
h -t 1.10864 -s 2 -d 3 -p tcp -e 1040 -c 1 -i 2 -a 1 -x {1.0 3.1 -1 ------- null}
r -t 1.14192 -s 1 -d 2 -p tcp -e 1040 -c 1 -i 3 -a 1 -x {1.0 3.1 2 ------- null}
+ -t 1.14192 -s 2 -d 3 -p tcp -e 1040 -c 1 -i 3 -a 1 -x {1.0 3.1 2 ------- null}
- -t 1.27504 -s 2 -d 3 -p tcp -e 1040 -c 1 -i 3 -a 1 -x {1.0 3.1 2 ------- null}
h -t 1.27504 -s 2 -d 3 -p tcp -e 1040 -c 1 -i 3 -a 1 -x {1.0 3.1 -1 ------- null}
r -t 1.77504 -s 2 -d 3 -p tcp -e 1040 -c 1 -i 2 -a 1 -x {1.0 3.1 1 ------- null}
+ -t 1.77504 -s 3 -d 2 -p ack -e 40 -c 1 -i 4 -a 1 -x {3.1 1.0 1 ------- null}
- -t 1.77504 -s 3 -d 2 -p ack -e 40 -c 1 -i 4 -a 1 -x {3.1 1.0 1 ------- null}
h -t 1.77504 -s 3 -d 2 -p ack -e 40 -c 1 -i 4 -a 1 -x {3.1 1.0 -1 ------- null}
r -t 1.94144 -s 2 -d 3 -p tcp -e 1040 -c 1 -i 3 -a 1 -x {1.0 3.1 2 ------- null}
+ -t 1.94144 -s 3 -d 2 -p ack -e 40 -c 1 -i 5 -a 1 -x {3.1 1.0 2 ------- null}
- -t 1.94144 -s 3 -d 2 -p ack -e 40 -c 1 -i 5 -a 1 -x {3.1 1.0 2 ------- null}
h -t 1.94144 -s 3 -d 2 -p ack -e 40 -c 1 -i 5 -a 1 -x {3.1 1.0 -1 ------- null}
r -t 2.28144 -s 3 -d 2 -p ack -e 40 -c 1 -i 4 -a 1 -x {3.1 1.0 1 ------- null}
+ -t 2.28144 -s 2 -d 1 -p ack -e 40 -c 1 -i 4 -a 1 -x {3.1 1.0 1 ------- null}
- -t 2.28144 -s 2 -d 1 -p ack -e 40 -c 1 -i 4 -a 1 -x {3.1 1.0 1 ------- null}
h -t 2.28144 -s 2 -d 1 -p ack -e 40 -c 1 -i 4 -a 1 -x {3.1 1.0 -1 ------- null}
r -t 2.30272 -s 2 -d 1 -p ack -e 40 -c 1 -i 4 -a 1 -x {3.1 1.0 1 ------- null}
+ -t 2.30272 -s 1 -d 2 -p tcp -e 1040 -c 1 -i 6 -a 1 -x {1.0 3.1 3 ------- null}
- -t 2.30272 -s 1 -d 2 -p tcp -e 1040 -c 1 -i 6 -a 1 -x {1.0 3.1 3 ------- null}
h -t 2.30272 -s 1 -d 2 -p tcp -e 1040 -c 1 -i 6 -a 1 -x {1.0 3.1 -1 ------- null}
+ -t 2.30272 -s 1 -d 2 -p tcp -e 1040 -c 1 -i 7 -a 1 -x {1.0 3.1 4 ------- null}
- -t 2.336 -s 1 -d 2 -p tcp -e 1040 -c 1 -i 7 -a 1 -x {1.0 3.1 4 ------- null}
h -t 2.336 -s 1 -d 2 -p tcp -e 1040 -c 1 -i 7 -a 1 -x {1.0 3.1 -1 ------- null}
r -t 2.356 -s 1 -d 2 -p tcp -e 1040 -c 1 -i 6 -a 1 -x {1.0 3.1 3 ------- null}
+ -t 2.356 -s 2 -d 3 -p tcp -e 1040 -c 1 -i 6 -a 1 -x {1.0 3.1 3 ------- null}
- -t 2.356 -s 2 -d 3 -p tcp -e 1040 -c 1 -i 6 -a 1 -x {1.0 3.1 3 ------- null}
h -t 2.356 -s 2 -d 3 -p tcp -e 1040 -c 1 -i 6 -a 1 -x {1.0 3.1 -1 ------- null}
r -t 2.38928 -s 1 -d 2 -p tcp -e 1040 -c 1 -i 7 -a 1 -x {1.0 3.1 4 ------- null}
+ -t 2.38928 -s 2 -d 3 -p tcp -e 1040 -c 1 -i 7 -a 1 -x {1.0 3.1 4 ------- null}
r -t 2.44784 -s 3 -d 2 -p ack -e 40 -c 1 -i 5 -a 1 -x {3.1 1.0 2 ------- null}
+ -t 2.44784 -s 2 -d 1 -p ack -e 40 -c 1 -i 5 -a 1 -x {3.1 1.0 2 ------- null}
- -t 2.44784 -s 2 -d 1 -p ack -e 40 -c 1 -i 5 -a 1 -x {3.1 1.0 2 ------- null}
h -t 2.44784 -s 2 -d 1 -p ack -e 40 -c 1 -i 5 -a 1 -x {3.1 1.0 -1 ------- null}
r -t 2.46912 -s 2 -d 1 -p ack -e 40 -c 1 -i 5 -a 1 -x {3.1 1.0 2 ------- null}
+ -t 2.46912 -s 1 -d 2 -p tcp -e 1040 -c 1 -i 8 -a 1 -x {1.0 3.1 5 ------- null}
- -t 2.46912 -s 1 -d 2 -p tcp -e 1040 -c 1 -i 8 -a 1 -x {1.0 3.1 5 ------- null}
h -t 2.46912 -s 1 -d 2 -p tcp -e 1040 -c 1 -i 8 -a 1 -x {1.0 3.1 -1 ------- null}
+ -t 2.46912 -s 1 -d 2 -p tcp -e 1040 -c 1 -i 9 -a 1 -x {1.0 3.1 6 ------- null}
- -t 2.5024 -s 1 -d 2 -p tcp -e 1040 -c 1 -i 9 -a 1 -x {1.0 3.1 6 ------- null}
h -t 2.5024 -s 1 -d 2 -p tcp -e 1040 -c 1 -i 9 -a 1 -x {1.0 3.1 -1 ------- null}
r -t 2.5224 -s 1 -d 2 -p tcp -e 1040 -c 1 -i 8 -a 1 -x {1.0 3.1 5 ------- null}
+ -t 2.5224 -s 2 -d 3 -p tcp -e 1040 -c 1 -i 8 -a 1 -x {1.0 3.1 5 ------- null}
- -t 2.5224 -s 2 -d 3 -p tcp -e 1040 -c 1 -i 7 -a 1 -x {1.0 3.1 4 ------- null}
h -t 2.5224 -s 2 -d 3 -p tcp -e 1040 -c 1 -i 7 -a 1 -x {1.0 3.1 -1 ------- null}
r -t 2.55568 -s 1 -d 2 -p tcp -e 1040 -c 1 -i 9 -a 1 -x {1.0 3.1 6 ------- null}
+ -t 2.55568 -s 2 -d 3 -p tcp -e 1040 -c 1 -i 9 -a 1 -x {1.0 3.1 6 ------- null}
- -t 2.6888 -s 2 -d 3 -p tcp -e 1040 -c 1 -i 8 -a 1 -x {1.0 3.1 5 ------- null}
h -t 2.6888 -s 2 -d 3 -p tcp -e 1040 -c 1 -i 8 -a 1 -x {1.0 3.1 -1 ------- null}
- -t 2.8552 -s 2 -d 3 -p tcp -e 1040 -c 1 -i 9 -a 1 -x {1.0 3.1 6 ------- null}
h -t 2.8552 -s 2 -d 3 -p tcp -e 1040 -c 1 -i 9 -a 1 -x {1.0 3.1 -1 ------- null}
r -t 3.0224 -s 2 -d 3 -p tcp -e 1040 -c 1 -i 6 -a 1 -x {1.0 3.1 3 ------- null}
+ -t 3.0224 -s 3 -d 2 -p ack -e 40 -c 1 -i 10 -a 1 -x {3.1 1.0 3 ------- null}
- -t 3.0224 -s 3 -d 2 -p ack -e 40 -c 1 -i 10 -a 1 -x {3.1 1.0 3 ------- null}
h -t 3.0224 -s 3 -d 2 -p ack -e 40 -c 1 -i 10 -a 1 -x {3.1 1.0 -1 ------- null}
r -t 3.1888 -s 2 -d 3 -p tcp -e 1040 -c 1 -i 7 -a 1 -x {1.0 3.1 4 ------- null}
+ -t 3.1888 -s 3 -d 2 -p ack -e 40 -c 1 -i 11 -a 1 -x {3.1 1.0 4 ------- null}
- -t 3.1888 -s 3 -d 2 -p ack -e 40 -c 1 -i 11 -a 1 -x {3.1 1.0 4 ------- null}
h -t 3.1888 -s 3 -d 2 -p ack -e 40 -c 1 -i 11 -a 1 -x {3.1 1.0 -1 ------- null}
r -t 3.3552 -s 2 -d 3 -p tcp -e 1040 -c 1 -i 8 -a 1 -x {1.0 3.1 5 ------- null}
+ -t 3.3552 -s 3 -d 2 -p ack -e 40 -c 1 -i 12 -a 1 -x {3.1 1.0 5 ------- null}
- -t 3.3552 -s 3 -d 2 -p ack -e 40 -c 1 -i 12 -a 1 -x {3.1 1.0 5 ------- null}
h -t 3.3552 -s 3 -d 2 -p ack -e 40 -c 1 -i 12 -a 1 -x {3.1 1.0 -1 ------- null}
r -t 3.5216 -s 2 -d 3 -p tcp -e 1040 -c 1 -i 9 -a 1 -x {1.0 3.1 6 ------- null}
+ -t 3.5216 -s 3 -d 2 -p ack -e 40 -c 1 -i 13 -a 1 -x {3.1 1.0 6 ------- null}
- -t 3.5216 -s 3 -d 2 -p ack -e 40 -c 1 -i 13 -a 1 -x {3.1 1.0 6 ------- null}
h -t 3.5216 -s 3 -d 2 -p ack -e 40 -c 1 -i 13 -a 1 -x {3.1 1.0 -1 ------- null}
r -t 3.5288 -s 3 -d 2 -p ack -e 40 -c 1 -i 10 -a 1 -x {3.1 1.0 3 ------- null}
+ -t 3.5288 -s 2 -d 1 -p ack -e 40 -c 1 -i 10 -a 1 -x {3.1 1.0 3 ------- null}
- -t 3.5288 -s 2 -d 1 -p ack -e 40 -c 1 -i 10 -a 1 -x {3.1 1.0 3 ------- null}
h -t 3.5288 -s 2 -d 1 -p ack -e 40 -c 1 -i 10 -a 1 -x {3.1 1.0 -1 ------- null}
r -t 3.55008 -s 2 -d 1 -p ack -e 40 -c 1 -i 10 -a 1 -x {3.1 1.0 3 ------- null}
+ -t 3.55008 -s 1 -d 2 -p tcp -e 1040 -c 1 -i 14 -a 1 -x {1.0 3.1 7 ------- null}
- -t 3.55008 -s 1 -d 2 -p tcp -e 1040 -c 1 -i 14 -a 1 -x {1.0 3.1 7 ------- null}
h -t 3.55008 -s 1 -d 2 -p tcp -e 1040 -c 1 -i 14 -a 1 -x {1.0 3.1 -1 ------- null}
+ -t 3.55008 -s 1 -d 2 -p tcp -e 1040 -c 1 -i 15 -a 1 -x {1.0 3.1 8 ------- null}
- -t 3.58336 -s 1 -d 2 -p tcp -e 1040 -c 1 -i 15 -a 1 -x {1.0 3.1 8 ------- null}
h -t 3.58336 -s 1 -d 2 -p tcp -e 1040 -c 1 -i 15 -a 1 -x {1.0 3.1 -1 ------- null}
r -t 3.60336 -s 1 -d 2 -p tcp -e 1040 -c 1 -i 14 -a 1 -x {1.0 3.1 7 ------- null}
+ -t 3.60336 -s 2 -d 3 -p tcp -e 1040 -c 1 -i 14 -a 1 -x {1.0 3.1 7 ------- null}
- -t 3.60336 -s 2 -d 3 -p tcp -e 1040 -c 1 -i 14 -a 1 -x {1.0 3.1 7 ------- null}
h -t 3.60336 -s 2 -d 3 -p tcp -e 1040 -c 1 -i 14 -a 1 -x {1.0 3.1 -1 ------- null}
r -t 3.63664 -s 1 -d 2 -p tcp -e 1040 -c 1 -i 15 -a 1 -x {1.0 3.1 8 ------- null}
+ -t 3.63664 -s 2 -d 3 -p tcp -e 1040 -c 1 -i 15 -a 1 -x {1.0 3.1 8 ------- null}
r -t 3.6952 -s 3 -d 2 -p ack -e 40 -c 1 -i 11 -a 1 -x {3.1 1.0 4 ------- null}
+ -t 3.6952 -s 2 -d 1 -p ack -e 40 -c 1 -i 11 -a 1 -x {3.1 1.0 4 ------- null}
- -t 3.6952 -s 2 -d 1 -p ack -e 40 -c 1 -i 11 -a 1 -x {3.1 1.0 4 ------- null}
h -t 3.6952 -s 2 -d 1 -p ack -e 40 -c 1 -i 11 -a 1 -x {3.1 1.0 -1 ------- null}
r -t 3.71648 -s 2 -d 1 -p ack -e 40 -c 1 -i 11 -a 1 -x {3.1 1.0 4 ------- null}
+ -t 3.71648 -s 1 -d 2 -p tcp -e 1040 -c 1 -i 16 -a 1 -x {1.0 3.1 9 ------- null}
- -t 3.71648 -s 1 -d 2 -p tcp -e 1040 -c 1 -i 16 -a 1 -x {1.0 3.1 9 ------- null}
h -t 3.71648 -s 1 -d 2 -p tcp -e 1040 -c 1 -i 16 -a 1 -x {1.0 3.1 -1 ------- null}
+ -t 3.71648 -s 1 -d 2 -p tcp -e 1040 -c 1 -i 17 -a 1 -x {1.0 3.1 10 ------- null}
- -t 3.74976 -s 1 -d 2 -p tcp -e 1040 -c 1 -i 17 -a 1 -x {1.0 3.1 10 ------- null}
h -t 3.74976 -s 1 -d 2 -p tcp -e 1040 -c 1 -i 17 -a 1 -x {1.0 3.1 -1 ------- null}
- -t 3.76976 -s 2 -d 3 -p tcp -e 1040 -c 1 -i 15 -a 1 -x {1.0 3.1 8 ------- null}
h -t 3.76976 -s 2 -d 3 -p tcp -e 1040 -c 1 -i 15 -a 1 -x {1.0 3.1 -1 ------- null}
r -t 3.76976 -s 1 -d 2 -p tcp -e 1040 -c 1 -i 16 -a 1 -x {1.0 3.1 9 ------- null}
+ -t 3.76976 -s 2 -d 3 -p tcp -e 1040 -c 1 -i 16 -a 1 -x {1.0 3.1 9 ------- null}
r -t 3.80304 -s 1 -d 2 -p tcp -e 1040 -c 1 -i 17 -a 1 -x {1.0 3.1 10 ------- null}
+ -t 3.80304 -s 2 -d 3 -p tcp -e 1040 -c 1 -i 17 -a 1 -x {1.0 3.1 10 ------- null}
r -t 3.8616 -s 3 -d 2 -p ack -e 40 -c 1 -i 12 -a 1 -x {3.1 1.0 5 ------- null}
+ -t 3.8616 -s 2 -d 1 -p ack -e 40 -c 1 -i 12 -a 1 -x {3.1 1.0 5 ------- null}
- -t 3.8616 -s 2 -d 1 -p ack -e 40 -c 1 -i 12 -a 1 -x {3.1 1.0 5 ------- null}
h -t 3.8616 -s 2 -d 1 -p ack -e 40 -c 1 -i 12 -a 1 -x {3.1 1.0 -1 ------- null}
r -t 3.88288 -s 2 -d 1 -p ack -e 40 -c 1 -i 12 -a 1 -x {3.1 1.0 5 ------- null}
+ -t 3.88288 -s 1 -d 2 -p tcp -e 1040 -c 1 -i 18 -a 1 -x {1.0 3.1 11 ------- null}
- -t 3.88288 -s 1 -d 2 -p tcp -e 1040 -c 1 -i 18 -a 1 -x {1.0 3.1 11 ------- null}
h -t 3.88288 -s 1 -d 2 -p tcp -e 1040 -c 1 -i 18 -a 1 -x {1.0 3.1 -1 ------- null}
+ -t 3.88288 -s 1 -d 2 -p tcp -e 1040 -c 1 -i 19 -a 1 -x {1.0 3.1 12 ------- null}
- -t 3.91616 -s 1 -d 2 -p tcp -e 1040 -c 1 -i 19 -a 1 -x {1.0 3.1 12 ------- null}
h -t 3.91616 -s 1 -d 2 -p tcp -e 1040 -c 1 -i 19 -a 1 -x {1.0 3.1 -1 ------- null}
- -t 3.93616 -s 2 -d 3 -p tcp -e 1040 -c 1 -i 16 -a 1 -x {1.0 3.1 9 ------- null}
h -t 3.93616 -s 2 -d 3 -p tcp -e 1040 -c 1 -i 16 -a 1 -x {1.0 3.1 -1 ------- null}
r -t 3.93616 -s 1 -d 2 -p tcp -e 1040 -c 1 -i 18 -a 1 -x {1.0 3.1 11 ------- null}
+ -t 3.93616 -s 2 -d 3 -p tcp -e 1040 -c 1 -i 18 -a 1 -x {1.0 3.1 11 ------- null}
r -t 3.96944 -s 1 -d 2 -p tcp -e 1040 -c 1 -i 19 -a 1 -x {1.0 3.1 12 ------- null}
+ -t 3.96944 -s 2 -d 3 -p tcp -e 1040 -c 1 -i 19 -a 1 -x {1.0 3.1 12 ------- null}
r -t 4.028 -s 3 -d 2 -p ack -e 40 -c 1 -i 13 -a 1 -x {3.1 1.0 6 ------- null}
+ -t 4.028 -s 2 -d 1 -p ack -e 40 -c 1 -i 13 -a 1 -x {3.1 1.0 6 ------- null}
- -t 4.028 -s 2 -d 1 -p ack -e 40 -c 1 -i 13 -a 1 -x {3.1 1.0 6 ------- null}
h -t 4.028 -s 2 -d 1 -p ack -e 40 -c 1 -i 13 -a 1 -x {3.1 1.0 -1 ------- null}
r -t 4.04928 -s 2 -d 1 -p ack -e 40 -c 1 -i 13 -a 1 -x {3.1 1.0 6 ------- null}
+ -t 4.04928 -s 1 -d 2 -p tcp -e 1040 -c 1 -i 20 -a 1 -x {1.0 3.1 13 ------- null}
- -t 4.04928 -s 1 -d 2 -p tcp -e 1040 -c 1 -i 20 -a 1 -x {1.0 3.1 13 ------- null}
h -t 4.04928 -s 1 -d 2 -p tcp -e 1040 -c 1 -i 20 -a 1 -x {1.0 3.1 -1 ------- null}
+ -t 4.04928 -s 1 -d 2 -p tcp -e 1040 -c 1 -i 21 -a 1 -x {1.0 3.1 14 ------- null}
- -t 4.08256 -s 1 -d 2 -p tcp -e 1040 -c 1 -i 21 -a 1 -x {1.0 3.1 14 ------- null}
h -t 4.08256 -s 1 -d 2 -p tcp -e 1040 -c 1 -i 21 -a 1 -x {1.0 3.1 -1 ------- null}
- -t 4.10256 -s 2 -d 3 -p tcp -e 1040 -c 1 -i 17 -a 1 -x {1.0 3.1 10 ------- null}
h -t 4.10256 -s 2 -d 3 -p tcp -e 1040 -c 1 -i 17 -a 1 -x {1.0 3.1 -1 ------- null}
r -t 4.10256 -s 1 -d 2 -p tcp -e 1040 -c 1 -i 20 -a 1 -x {1.0 3.1 13 ------- null}
+ -t 4.10256 -s 2 -d 3 -p tcp -e 1040 -c 1 -i 20 -a 1 -x {1.0 3.1 13 ------- null}
r -t 4.13584 -s 1 -d 2 -p tcp -e 1040 -c 1 -i 21 -a 1 -x {1.0 3.1 14 ------- null}
+ -t 4.13584 -s 2 -d 3 -p tcp -e 1040 -c 1 -i 21 -a 1 -x {1.0 3.1 14 ------- null}
- -t 4.26896 -s 2 -d 3 -p tcp -e 1040 -c 1 -i 18 -a 1 -x {1.0 3.1 11 ------- null}
h -t 4.26896 -s 2 -d 3 -p tcp -e 1040 -c 1 -i 18 -a 1 -x {1.0 3.1 -1 ------- null}
r -t 4.26976 -s 2 -d 3 -p tcp -e 1040 -c 1 -i 14 -a 1 -x {1.0 3.1 7 ------- null}
+ -t 4.26976 -s 3 -d 2 -p ack -e 40 -c 1 -i 22 -a 1 -x {3.1 1.0 7 ------- null}
- -t 4.26976 -s 3 -d 2 -p ack -e 40 -c 1 -i 22 -a 1 -x {3.1 1.0 7 ------- null}
h -t 4.26976 -s 3 -d 2 -p ack -e 40 -c 1 -i 22 -a 1 -x {3.1 1.0 -1 ------- null}
- -t 4.43536 -s 2 -d 3 -p tcp -e 1040 -c 1 -i 19 -a 1 -x {1.0 3.1 12 ------- null}
h -t 4.43536 -s 2 -d 3 -p tcp -e 1040 -c 1 -i 19 -a 1 -x {1.0 3.1 -1 ------- null}
r -t 4.43616 -s 2 -d 3 -p tcp -e 1040 -c 1 -i 15 -a 1 -x {1.0 3.1 8 ------- null}
+ -t 4.43616 -s 3 -d 2 -p ack -e 40 -c 1 -i 23 -a 1 -x {3.1 1.0 8 ------- null}
- -t 4.43616 -s 3 -d 2 -p ack -e 40 -c 1 -i 23 -a 1 -x {3.1 1.0 8 ------- null}
h -t 4.43616 -s 3 -d 2 -p ack -e 40 -c 1 -i 23 -a 1 -x {3.1 1.0 -1 ------- null}
- -t 4.60176 -s 2 -d 3 -p tcp -e 1040 -c 1 -i 20 -a 1 -x {1.0 3.1 13 ------- null}
h -t 4.60176 -s 2 -d 3 -p tcp -e 1040 -c 1 -i 20 -a 1 -x {1.0 3.1 -1 ------- null}
r -t 4.60256 -s 2 -d 3 -p tcp -e 1040 -c 1 -i 16 -a 1 -x {1.0 3.1 9 ------- null}
+ -t 4.60256 -s 3 -d 2 -p ack -e 40 -c 1 -i 24 -a 1 -x {3.1 1.0 9 ------- null}
- -t 4.60256 -s 3 -d 2 -p ack -e 40 -c 1 -i 24 -a 1 -x {3.1 1.0 9 ------- null}
h -t 4.60256 -s 3 -d 2 -p ack -e 40 -c 1 -i 24 -a 1 -x {3.1 1.0 -1 ------- null}
- -t 4.76816 -s 2 -d 3 -p tcp -e 1040 -c 1 -i 21 -a 1 -x {1.0 3.1 14 ------- null}
h -t 4.76816 -s 2 -d 3 -p tcp -e 1040 -c 1 -i 21 -a 1 -x {1.0 3.1 -1 ------- null}
r -t 4.76896 -s 2 -d 3 -p tcp -e 1040 -c 1 -i 17 -a 1 -x {1.0 3.1 10 ------- null}
+ -t 4.76896 -s 3 -d 2 -p ack -e 40 -c 1 -i 25 -a 1 -x {3.1 1.0 10 ------- null}
- -t 4.76896 -s 3 -d 2 -p ack -e 40 -c 1 -i 25 -a 1 -x {3.1 1.0 10 ------- null}
h -t 4.76896 -s 3 -d 2 -p ack -e 40 -c 1 -i 25 -a 1 -x {3.1 1.0 -1 ------- null}
r -t 4.77616 -s 3 -d 2 -p ack -e 40 -c 1 -i 22 -a 1 -x {3.1 1.0 7 ------- null}
+ -t 4.77616 -s 2 -d 1 -p ack -e 40 -c 1 -i 22 -a 1 -x {3.1 1.0 7 ------- null}
- -t 4.77616 -s 2 -d 1 -p ack -e 40 -c 1 -i 22 -a 1 -x {3.1 1.0 7 ------- null}
h -t 4.77616 -s 2 -d 1 -p ack -e 40 -c 1 -i 22 -a 1 -x {3.1 1.0 -1 ------- null}
r -t 4.79744 -s 2 -d 1 -p ack -e 40 -c 1 -i 22 -a 1 -x {3.1 1.0 7 ------- null}
+ -t 4.79744 -s 1 -d 2 -p tcp -e 1040 -c 1 -i 26 -a 1 -x {1.0 3.1 15 ------- null}
- -t 4.79744 -s 1 -d 2 -p tcp -e 1040 -c 1 -i 26 -a 1 -x {1.0 3.1 15 ------- null}
h -t 4.79744 -s 1 -d 2 -p tcp -e 1040 -c 1 -i 26 -a 1 -x {1.0 3.1 -1 ------- null}
+ -t 4.79744 -s 1 -d 2 -p tcp -e 1040 -c 1 -i 27 -a 1 -x {1.0 3.1 16 ------- null}
- -t 4.83072 -s 1 -d 2 -p tcp -e 1040 -c 1 -i 27 -a 1 -x {1.0 3.1 16 ------- null}
h -t 4.83072 -s 1 -d 2 -p tcp -e 1040 -c 1 -i 27 -a 1 -x {1.0 3.1 -1 ------- null}
r -t 4.85072 -s 1 -d 2 -p tcp -e 1040 -c 1 -i 26 -a 1 -x {1.0 3.1 15 ------- null}
+ -t 4.85072 -s 2 -d 3 -p tcp -e 1040 -c 1 -i 26 -a 1 -x {1.0 3.1 15 ------- null}
r -t 4.884 -s 1 -d 2 -p tcp -e 1040 -c 1 -i 27 -a 1 -x {1.0 3.1 16 ------- null}
+ -t 4.884 -s 2 -d 3 -p tcp -e 1040 -c 1 -i 27 -a 1 -x {1.0 3.1 16 ------- null}
- -t 4.93456 -s 2 -d 3 -p tcp -e 1040 -c 1 -i 26 -a 1 -x {1.0 3.1 15 ------- null}
h -t 4.93456 -s 2 -d 3 -p tcp -e 1040 -c 1 -i 26 -a 1 -x {1.0 3.1 -1 ------- null}
r -t 4.93536 -s 2 -d 3 -p tcp -e 1040 -c 1 -i 18 -a 1 -x {1.0 3.1 11 ------- null}
+ -t 4.93536 -s 3 -d 2 -p ack -e 40 -c 1 -i 28 -a 1 -x {3.1 1.0 11 ------- null}
- -t 4.93536 -s 3 -d 2 -p ack -e 40 -c 1 -i 28 -a 1 -x {3.1 1.0 11 ------- null}
h -t 4.93536 -s 3 -d 2 -p ack -e 40 -c 1 -i 28 -a 1 -x {3.1 1.0 -1 ------- null}
r -t 4.94256 -s 3 -d 2 -p ack -e 40 -c 1 -i 23 -a 1 -x {3.1 1.0 8 ------- null}
+ -t 4.94256 -s 2 -d 1 -p ack -e 40 -c 1 -i 23 -a 1 -x {3.1 1.0 8 ------- null}
- -t 4.94256 -s 2 -d 1 -p ack -e 40 -c 1 -i 23 -a 1 -x {3.1 1.0 8 ------- null}
h -t 4.94256 -s 2 -d 1 -p ack -e 40 -c 1 -i 23 -a 1 -x {3.1 1.0 -1 ------- null}
r -t 4.96384 -s 2 -d 1 -p ack -e 40 -c 1 -i 23 -a 1 -x {3.1 1.0 8 ------- null}
+ -t 4.96384 -s 1 -d 2 -p tcp -e 1040 -c 1 -i 29 -a 1 -x {1.0 3.1 17 ------- null}
- -t 4.96384 -s 1 -d 2 -p tcp -e 1040 -c 1 -i 29 -a 1 -x {1.0 3.1 17 ------- null}
h -t 4.96384 -s 1 -d 2 -p tcp -e 1040 -c 1 -i 29 -a 1 -x {1.0 3.1 -1 ------- null}
+ -t 4.96384 -s 1 -d 2 -p tcp -e 1040 -c 1 -i 30 -a 1 -x {1.0 3.1 18 ------- null}
- -t 4.99712 -s 1 -d 2 -p tcp -e 1040 -c 1 -i 30 -a 1 -x {1.0 3.1 18 ------- null}
h -t 4.99712 -s 1 -d 2 -p tcp -e 1040 -c 1 -i 30 -a 1 -x {1.0 3.1 -1 ------- null}
r -t 5.01712 -s 1 -d 2 -p tcp -e 1040 -c 1 -i 29 -a 1 -x {1.0 3.1 17 ------- null}
+ -t 5.01712 -s 2 -d 3 -p tcp -e 1040 -c 1 -i 29 -a 1 -x {1.0 3.1 17 ------- null}
r -t 5.0504 -s 1 -d 2 -p tcp -e 1040 -c 1 -i 30 -a 1 -x {1.0 3.1 18 ------- null}
+ -t 5.0504 -s 2 -d 3 -p tcp -e 1040 -c 1 -i 30 -a 1 -x {1.0 3.1 18 ------- null}
- -t 5.10096 -s 2 -d 3 -p tcp -e 1040 -c 1 -i 27 -a 1 -x {1.0 3.1 16 ------- null}
h -t 5.10096 -s 2 -d 3 -p tcp -e 1040 -c 1 -i 27 -a 1 -x {1.0 3.1 -1 ------- null}
r -t 5.10176 -s 2 -d 3 -p tcp -e 1040 -c 1 -i 19 -a 1 -x {1.0 3.1 12 ------- null}
+ -t 5.10176 -s 3 -d 2 -p ack -e 40 -c 1 -i 31 -a 1 -x {3.1 1.0 12 ------- null}
- -t 5.10176 -s 3 -d 2 -p ack -e 40 -c 1 -i 31 -a 1 -x {3.1 1.0 12 ------- null}
h -t 5.10176 -s 3 -d 2 -p ack -e 40 -c 1 -i 31 -a 1 -x {3.1 1.0 -1 ------- null}
r -t 5.10896 -s 3 -d 2 -p ack -e 40 -c 1 -i 24 -a 1 -x {3.1 1.0 9 ------- null}
+ -t 5.10896 -s 2 -d 1 -p ack -e 40 -c 1 -i 24 -a 1 -x {3.1 1.0 9 ------- null}
- -t 5.10896 -s 2 -d 1 -p ack -e 40 -c 1 -i 24 -a 1 -x {3.1 1.0 9 ------- null}
h -t 5.10896 -s 2 -d 1 -p ack -e 40 -c 1 -i 24 -a 1 -x {3.1 1.0 -1 ------- null}
r -t 5.13024 -s 2 -d 1 -p ack -e 40 -c 1 -i 24 -a 1 -x {3.1 1.0 9 ------- null}
+ -t 5.13024 -s 1 -d 2 -p tcp -e 1040 -c 1 -i 32 -a 1 -x {1.0 3.1 19 ------- null}
- -t 5.13024 -s 1 -d 2 -p tcp -e 1040 -c 1 -i 32 -a 1 -x {1.0 3.1 19 ------- null}
h -t 5.13024 -s 1 -d 2 -p tcp -e 1040 -c 1 -i 32 -a 1 -x {1.0 3.1 -1 ------- null}
r -t 5.18352 -s 1 -d 2 -p tcp -e 1040 -c 1 -i 32 -a 1 -x {1.0 3.1 19 ------- null}
+ -t 5.18352 -s 2 -d 3 -p tcp -e 1040 -c 1 -i 32 -a 1 -x {1.0 3.1 19 ------- null}
- -t 5.26736 -s 2 -d 3 -p tcp -e 1040 -c 1 -i 29 -a 1 -x {1.0 3.1 17 ------- null}
h -t 5.26736 -s 2 -d 3 -p tcp -e 1040 -c 1 -i 29 -a 1 -x {1.0 3.1 -1 ------- null}
r -t 5.26816 -s 2 -d 3 -p tcp -e 1040 -c 1 -i 20 -a 1 -x {1.0 3.1 13 ------- null}
+ -t 5.26816 -s 3 -d 2 -p ack -e 40 -c 1 -i 33 -a 1 -x {3.1 1.0 13 ------- null}
- -t 5.26816 -s 3 -d 2 -p ack -e 40 -c 1 -i 33 -a 1 -x {3.1 1.0 13 ------- null}
h -t 5.26816 -s 3 -d 2 -p ack -e 40 -c 1 -i 33 -a 1 -x {3.1 1.0 -1 ------- null}
r -t 5.27536 -s 3 -d 2 -p ack -e 40 -c 1 -i 25 -a 1 -x {3.1 1.0 10 ------- null}
+ -t 5.27536 -s 2 -d 1 -p ack -e 40 -c 1 -i 25 -a 1 -x {3.1 1.0 10 ------- null}
- -t 5.27536 -s 2 -d 1 -p ack -e 40 -c 1 -i 25 -a 1 -x {3.1 1.0 10 ------- null}
h -t 5.27536 -s 2 -d 1 -p ack -e 40 -c 1 -i 25 -a 1 -x {3.1 1.0 -1 ------- null}
r -t 5.29664 -s 2 -d 1 -p ack -e 40 -c 1 -i 25 -a 1 -x {3.1 1.0 10 ------- null}
+ -t 5.29664 -s 1 -d 2 -p tcp -e 1040 -c 1 -i 34 -a 1 -x {1.0 3.1 20 ------- null}
- -t 5.29664 -s 1 -d 2 -p tcp -e 1040 -c 1 -i 34 -a 1 -x {1.0 3.1 20 ------- null}
h -t 5.29664 -s 1 -d 2 -p tcp -e 1040 -c 1 -i 34 -a 1 -x {1.0 3.1 -1 ------- null}
r -t 5.34992 -s 1 -d 2 -p tcp -e 1040 -c 1 -i 34 -a 1 -x {1.0 3.1 20 ------- null}
+ -t 5.34992 -s 2 -d 3 -p tcp -e 1040 -c 1 -i 34 -a 1 -x {1.0 3.1 20 ------- null}
- -t 5.43376 -s 2 -d 3 -p tcp -e 1040 -c 1 -i 30 -a 1 -x {1.0 3.1 18 ------- null}
h -t 5.43376 -s 2 -d 3 -p tcp -e 1040 -c 1 -i 30 -a 1 -x {1.0 3.1 -1 ------- null}
r -t 5.43456 -s 2 -d 3 -p tcp -e 1040 -c 1 -i 21 -a 1 -x {1.0 3.1 14 ------- null}
+ -t 5.43456 -s 3 -d 2 -p ack -e 40 -c 1 -i 35 -a 1 -x {3.1 1.0 14 ------- null}
- -t 5.43456 -s 3 -d 2 -p ack -e 40 -c 1 -i 35 -a 1 -x {3.1 1.0 14 ------- null}
h -t 5.43456 -s 3 -d 2 -p ack -e 40 -c 1 -i 35 -a 1 -x {3.1 1.0 -1 ------- null}
r -t 5.44176 -s 3 -d 2 -p ack -e 40 -c 1 -i 28 -a 1 -x {3.1 1.0 11 ------- null}
+ -t 5.44176 -s 2 -d 1 -p ack -e 40 -c 1 -i 28 -a 1 -x {3.1 1.0 11 ------- null}
- -t 5.44176 -s 2 -d 1 -p ack -e 40 -c 1 -i 28 -a 1 -x {3.1 1.0 11 ------- null}
h -t 5.44176 -s 2 -d 1 -p ack -e 40 -c 1 -i 28 -a 1 -x {3.1 1.0 -1 ------- null}
r -t 5.46304 -s 2 -d 1 -p ack -e 40 -c 1 -i 28 -a 1 -x {3.1 1.0 11 ------- null}
+ -t 5.46304 -s 1 -d 2 -p tcp -e 1040 -c 1 -i 36 -a 1 -x {1.0 3.1 21 ------- null}
- -t 5.46304 -s 1 -d 2 -p tcp -e 1040 -c 1 -i 36 -a 1 -x {1.0 3.1 21 ------- null}
h -t 5.46304 -s 1 -d 2 -p tcp -e 1040 -c 1 -i 36 -a 1 -x {1.0 3.1 -1 ------- null}
r -t 5.51632 -s 1 -d 2 -p tcp -e 1040 -c 1 -i 36 -a 1 -x {1.0 3.1 21 ------- null}
+ -t 5.51632 -s 2 -d 3 -p tcp -e 1040 -c 1 -i 36 -a 1 -x {1.0 3.1 21 ------- null}
- -t 5.60016 -s 2 -d 3 -p tcp -e 1040 -c 1 -i 32 -a 1 -x {1.0 3.1 19 ------- null}
h -t 5.60016 -s 2 -d 3 -p tcp -e 1040 -c 1 -i 32 -a 1 -x {1.0 3.1 -1 ------- null}
r -t 5.60096 -s 2 -d 3 -p tcp -e 1040 -c 1 -i 26 -a 1 -x {1.0 3.1 15 ------- null}
+ -t 5.60096 -s 3 -d 2 -p ack -e 40 -c 1 -i 37 -a 1 -x {3.1 1.0 15 ------- null}
- -t 5.60096 -s 3 -d 2 -p ack -e 40 -c 1 -i 37 -a 1 -x {3.1 1.0 15 ------- null}
h -t 5.60096 -s 3 -d 2 -p ack -e 40 -c 1 -i 37 -a 1 -x {3.1 1.0 -1 ------- null}
r -t 5.60816 -s 3 -d 2 -p ack -e 40 -c 1 -i 31 -a 1 -x {3.1 1.0 12 ------- null}
+ -t 5.60816 -s 2 -d 1 -p ack -e 40 -c 1 -i 31 -a 1 -x {3.1 1.0 12 ------- null}
- -t 5.60816 -s 2 -d 1 -p ack -e 40 -c 1 -i 31 -a 1 -x {3.1 1.0 12 ------- null}
h -t 5.60816 -s 2 -d 1 -p ack -e 40 -c 1 -i 31 -a 1 -x {3.1 1.0 -1 ------- null}
r -t 5.62944 -s 2 -d 1 -p ack -e 40 -c 1 -i 31 -a 1 -x {3.1 1.0 12 ------- null}
+ -t 5.62944 -s 1 -d 2 -p tcp -e 1040 -c 1 -i 38 -a 1 -x {1.0 3.1 22 ------- null}
- -t 5.62944 -s 1 -d 2 -p tcp -e 1040 -c 1 -i 38 -a 1 -x {1.0 3.1 22 ------- null}
h -t 5.62944 -s 1 -d 2 -p tcp -e 1040 -c 1 -i 38 -a 1 -x {1.0 3.1 -1 ------- null}
r -t 5.68272 -s 1 -d 2 -p tcp -e 1040 -c 1 -i 38 -a 1 -x {1.0 3.1 22 ------- null}
+ -t 5.68272 -s 2 -d 3 -p tcp -e 1040 -c 1 -i 38 -a 1 -x {1.0 3.1 22 ------- null}
- -t 5.76656 -s 2 -d 3 -p tcp -e 1040 -c 1 -i 34 -a 1 -x {1.0 3.1 20 ------- null}
h -t 5.76656 -s 2 -d 3 -p tcp -e 1040 -c 1 -i 34 -a 1 -x {1.0 3.1 -1 ------- null}
r -t 5.76736 -s 2 -d 3 -p tcp -e 1040 -c 1 -i 27 -a 1 -x {1.0 3.1 16 ------- null}
+ -t 5.76736 -s 3 -d 2 -p ack -e 40 -c 1 -i 39 -a 1 -x {3.1 1.0 16 ------- null}
- -t 5.76736 -s 3 -d 2 -p ack -e 40 -c 1 -i 39 -a 1 -x {3.1 1.0 16 ------- null}
h -t 5.76736 -s 3 -d 2 -p ack -e 40 -c 1 -i 39 -a 1 -x {3.1 1.0 -1 ------- null}
r -t 5.77456 -s 3 -d 2 -p ack -e 40 -c 1 -i 33 -a 1 -x {3.1 1.0 13 ------- null}
+ -t 5.77456 -s 2 -d 1 -p ack -e 40 -c 1 -i 33 -a 1 -x {3.1 1.0 13 ------- null}
- -t 5.77456 -s 2 -d 1 -p ack -e 40 -c 1 -i 33 -a 1 -x {3.1 1.0 13 ------- null}
h -t 5.77456 -s 2 -d 1 -p ack -e 40 -c 1 -i 33 -a 1 -x {3.1 1.0 -1 ------- null}
r -t 5.79584 -s 2 -d 1 -p ack -e 40 -c 1 -i 33 -a 1 -x {3.1 1.0 13 ------- null}
+ -t 5.79584 -s 1 -d 2 -p tcp -e 1040 -c 1 -i 40 -a 1 -x {1.0 3.1 23 ------- null}
- -t 5.79584 -s 1 -d 2 -p tcp -e 1040 -c 1 -i 40 -a 1 -x {1.0 3.1 23 ------- null}
h -t 5.79584 -s 1 -d 2 -p tcp -e 1040 -c 1 -i 40 -a 1 -x {1.0 3.1 -1 ------- null}
r -t 5.84912 -s 1 -d 2 -p tcp -e 1040 -c 1 -i 40 -a 1 -x {1.0 3.1 23 ------- null}
+ -t 5.84912 -s 2 -d 3 -p tcp -e 1040 -c 1 -i 40 -a 1 -x {1.0 3.1 23 ------- null}
- -t 5.93296 -s 2 -d 3 -p tcp -e 1040 -c 1 -i 36 -a 1 -x {1.0 3.1 21 ------- null}
h -t 5.93296 -s 2 -d 3 -p tcp -e 1040 -c 1 -i 36 -a 1 -x {1.0 3.1 -1 ------- null}
r -t 5.93376 -s 2 -d 3 -p tcp -e 1040 -c 1 -i 29 -a 1 -x {1.0 3.1 17 ------- null}
+ -t 5.93376 -s 3 -d 2 -p ack -e 40 -c 1 -i 41 -a 1 -x {3.1 1.0 17 ------- null}
- -t 5.93376 -s 3 -d 2 -p ack -e 40 -c 1 -i 41 -a 1 -x {3.1 1.0 17 ------- null}
h -t 5.93376 -s 3 -d 2 -p ack -e 40 -c 1 -i 41 -a 1 -x {3.1 1.0 -1 ------- null}
r -t 5.94096 -s 3 -d 2 -p ack -e 40 -c 1 -i 35 -a 1 -x {3.1 1.0 14 ------- null}
+ -t 5.94096 -s 2 -d 1 -p ack -e 40 -c 1 -i 35 -a 1 -x {3.1 1.0 14 ------- null}
- -t 5.94096 -s 2 -d 1 -p ack -e 40 -c 1 -i 35 -a 1 -x {3.1 1.0 14 ------- null}
h -t 5.94096 -s 2 -d 1 -p ack -e 40 -c 1 -i 35 -a 1 -x {3.1 1.0 -1 ------- null}
r -t 5.96224 -s 2 -d 1 -p ack -e 40 -c 1 -i 35 -a 1 -x {3.1 1.0 14 ------- null}
+ -t 5.96224 -s 1 -d 2 -p tcp -e 1040 -c 1 -i 42 -a 1 -x {1.0 3.1 24 ------- null}
- -t 5.96224 -s 1 -d 2 -p tcp -e 1040 -c 1 -i 42 -a 1 -x {1.0 3.1 24 ------- null}
h -t 5.96224 -s 1 -d 2 -p tcp -e 1040 -c 1 -i 42 -a 1 -x {1.0 3.1 -1 ------- null}
r -t 6.01552 -s 1 -d 2 -p tcp -e 1040 -c 1 -i 42 -a 1 -x {1.0 3.1 24 ------- null}
+ -t 6.01552 -s 2 -d 3 -p tcp -e 1040 -c 1 -i 42 -a 1 -x {1.0 3.1 24 ------- null}
- -t 6.09936 -s 2 -d 3 -p tcp -e 1040 -c 1 -i 38 -a 1 -x {1.0 3.1 22 ------- null}
h -t 6.09936 -s 2 -d 3 -p tcp -e 1040 -c 1 -i 38 -a 1 -x {1.0 3.1 -1 ------- null}
r -t 6.10016 -s 2 -d 3 -p tcp -e 1040 -c 1 -i 30 -a 1 -x {1.0 3.1 18 ------- null}
+ -t 6.10016 -s 3 -d 2 -p ack -e 40 -c 1 -i 43 -a 1 -x {3.1 1.0 18 ------- null}
- -t 6.10016 -s 3 -d 2 -p ack -e 40 -c 1 -i 43 -a 1 -x {3.1 1.0 18 ------- null}
h -t 6.10016 -s 3 -d 2 -p ack -e 40 -c 1 -i 43 -a 1 -x {3.1 1.0 -1 ------- null}
r -t 6.10736 -s 3 -d 2 -p ack -e 40 -c 1 -i 37 -a 1 -x {3.1 1.0 15 ------- null}
+ -t 6.10736 -s 2 -d 1 -p ack -e 40 -c 1 -i 37 -a 1 -x {3.1 1.0 15 ------- null}
- -t 6.10736 -s 2 -d 1 -p ack -e 40 -c 1 -i 37 -a 1 -x {3.1 1.0 15 ------- null}
h -t 6.10736 -s 2 -d 1 -p ack -e 40 -c 1 -i 37 -a 1 -x {3.1 1.0 -1 ------- null}
r -t 6.12864 -s 2 -d 1 -p ack -e 40 -c 1 -i 37 -a 1 -x {3.1 1.0 15 ------- null}
+ -t 6.12864 -s 1 -d 2 -p tcp -e 1040 -c 1 -i 44 -a 1 -x {1.0 3.1 25 ------- null}
- -t 6.12864 -s 1 -d 2 -p tcp -e 1040 -c 1 -i 44 -a 1 -x {1.0 3.1 25 ------- null}
h -t 6.12864 -s 1 -d 2 -p tcp -e 1040 -c 1 -i 44 -a 1 -x {1.0 3.1 -1 ------- null}
r -t 6.18192 -s 1 -d 2 -p tcp -e 1040 -c 1 -i 44 -a 1 -x {1.0 3.1 25 ------- null}
+ -t 6.18192 -s 2 -d 3 -p tcp -e 1040 -c 1 -i 44 -a 1 -x {1.0 3.1 25 ------- null}
- -t 6.26576 -s 2 -d 3 -p tcp -e 1040 -c 1 -i 40 -a 1 -x {1.0 3.1 23 ------- null}
h -t 6.26576 -s 2 -d 3 -p tcp -e 1040 -c 1 -i 40 -a 1 -x {1.0 3.1 -1 ------- null}
r -t 6.26656 -s 2 -d 3 -p tcp -e 1040 -c 1 -i 32 -a 1 -x {1.0 3.1 19 ------- null}
+ -t 6.26656 -s 3 -d 2 -p ack -e 40 -c 1 -i 45 -a 1 -x {3.1 1.0 19 ------- null}
- -t 6.26656 -s 3 -d 2 -p ack -e 40 -c 1 -i 45 -a 1 -x {3.1 1.0 19 ------- null}
h -t 6.26656 -s 3 -d 2 -p ack -e 40 -c 1 -i 45 -a 1 -x {3.1 1.0 -1 ------- null}
r -t 6.27376 -s 3 -d 2 -p ack -e 40 -c 1 -i 39 -a 1 -x {3.1 1.0 16 ------- null}
+ -t 6.27376 -s 2 -d 1 -p ack -e 40 -c 1 -i 39 -a 1 -x {3.1 1.0 16 ------- null}
- -t 6.27376 -s 2 -d 1 -p ack -e 40 -c 1 -i 39 -a 1 -x {3.1 1.0 16 ------- null}
h -t 6.27376 -s 2 -d 1 -p ack -e 40 -c 1 -i 39 -a 1 -x {3.1 1.0 -1 ------- null}
r -t 6.29504 -s 2 -d 1 -p ack -e 40 -c 1 -i 39 -a 1 -x {3.1 1.0 16 ------- null}
+ -t 6.29504 -s 1 -d 2 -p tcp -e 1040 -c 1 -i 46 -a 1 -x {1.0 3.1 26 ------- null}
- -t 6.29504 -s 1 -d 2 -p tcp -e 1040 -c 1 -i 46 -a 1 -x {1.0 3.1 26 ------- null}
h -t 6.29504 -s 1 -d 2 -p tcp -e 1040 -c 1 -i 46 -a 1 -x {1.0 3.1 -1 ------- null}
r -t 6.34832 -s 1 -d 2 -p tcp -e 1040 -c 1 -i 46 -a 1 -x {1.0 3.1 26 ------- null}
+ -t 6.34832 -s 2 -d 3 -p tcp -e 1040 -c 1 -i 46 -a 1 -x {1.0 3.1 26 ------- null}
- -t 6.43216 -s 2 -d 3 -p tcp -e 1040 -c 1 -i 42 -a 1 -x {1.0 3.1 24 ------- null}
h -t 6.43216 -s 2 -d 3 -p tcp -e 1040 -c 1 -i 42 -a 1 -x {1.0 3.1 -1 ------- null}
r -t 6.43296 -s 2 -d 3 -p tcp -e 1040 -c 1 -i 34 -a 1 -x {1.0 3.1 20 ------- null}
+ -t 6.43296 -s 3 -d 2 -p ack -e 40 -c 1 -i 47 -a 1 -x {3.1 1.0 20 ------- null}
- -t 6.43296 -s 3 -d 2 -p ack -e 40 -c 1 -i 47 -a 1 -x {3.1 1.0 20 ------- null}
h -t 6.43296 -s 3 -d 2 -p ack -e 40 -c 1 -i 47 -a 1 -x {3.1 1.0 -1 ------- null}
r -t 6.44016 -s 3 -d 2 -p ack -e 40 -c 1 -i 41 -a 1 -x {3.1 1.0 17 ------- null}
+ -t 6.44016 -s 2 -d 1 -p ack -e 40 -c 1 -i 41 -a 1 -x {3.1 1.0 17 ------- null}
- -t 6.44016 -s 2 -d 1 -p ack -e 40 -c 1 -i 41 -a 1 -x {3.1 1.0 17 ------- null}
h -t 6.44016 -s 2 -d 1 -p ack -e 40 -c 1 -i 41 -a 1 -x {3.1 1.0 -1 ------- null}
r -t 6.46144 -s 2 -d 1 -p ack -e 40 -c 1 -i 41 -a 1 -x {3.1 1.0 17 ------- null}
+ -t 6.46144 -s 1 -d 2 -p tcp -e 1040 -c 1 -i 48 -a 1 -x {1.0 3.1 27 ------- null}
- -t 6.46144 -s 1 -d 2 -p tcp -e 1040 -c 1 -i 48 -a 1 -x {1.0 3.1 27 ------- null}