+ 0 1 2 tcp 40 ------- 1 1.0 3.1 0 0
- 0 1 2 tcp 40 ------- 1 1.0 3.1 0 0
r 0.020064 1 2 tcp 40 ------- 1 1.0 3.1 0 0
+ 0.020064 2 3 tcp 40 ------- 1 1.0 3.1 0 0
- 0.020064 2 3 tcp 40 ------- 1 1.0 3.1 0 0
r 0.070384 2 3 tcp 40 ------- 1 1.0 3.1 0 0
+ 0.070384 3 2 ack 40 ------- 1 3.1 1.0 0 1
- 0.070384 3 2 ack 40 ------- 1 3.1 1.0 0 1
r 0.120704 3 2 ack 40 ------- 1 3.1 1.0 0 1
+ 0.120704 2 1 ack 40 ------- 1 3.1 1.0 0 1
- 0.120704 2 1 ack 40 ------- 1 3.1 1.0 0 1
r 0.140768 2 1 ack 40 ------- 1 3.1 1.0 0 1
+ 0.140768 1 2 tcp 1000 ------- 1 1.0 3.1 1 2
- 0.140768 1 2 tcp 1000 ------- 1 1.0 3.1 1 2
+ 0.140768 1 2 tcp 1000 ------- 1 1.0 3.1 2 3
- 0.142368 1 2 tcp 1000 ------- 1 1.0 3.1 2 3
r 0.162368 1 2 tcp 1000 ------- 1 1.0 3.1 1 2
+ 0.162368 2 3 tcp 1000 ------- 1 1.0 3.1 1 2
- 0.162368 2 3 tcp 1000 ------- 1 1.0 3.1 1 2
r 0.163968 1 2 tcp 1000 ------- 1 1.0 3.1 2 3
+ 0.163968 2 3 tcp 1000 ------- 1 1.0 3.1 2 3
- 0.170368 2 3 tcp 1000 ------- 1 1.0 3.1 2 3
r 0.220368 2 3 tcp 1000 ------- 1 1.0 3.1 1 2
+ 0.220368 3 2 ack 40 ------- 1 3.1 1.0 1 4
- 0.220368 3 2 ack 40 ------- 1 3.1 1.0 1 4
r 0.228368 2 3 tcp 1000 ------- 1 1.0 3.1 2 3
+ 0.228368 3 2 ack 40 ------- 1 3.1 1.0 2 5
- 0.228368 3 2 ack 40 ------- 1 3.1 1.0 2 5
r 0.270688 3 2 ack 40 ------- 1 3.1 1.0 1 4
+ 0.270688 2 1 ack 40 ------- 1 3.1 1.0 1 4
- 0.270688 2 1 ack 40 ------- 1 3.1 1.0 1 4
r 0.278688 3 2 ack 40 ------- 1 3.1 1.0 2 5
+ 0.278688 2 1 ack 40 ------- 1 3.1 1.0 2 5
- 0.278688 2 1 ack 40 ------- 1 3.1 1.0 2 5
r 0.290752 2 1 ack 40 ------- 1 3.1 1.0 1 4
+ 0.290752 1 2 tcp 1000 ------- 1 1.0 3.1 3 6
- 0.290752 1 2 tcp 1000 ------- 1 1.0 3.1 3 6
+ 0.290752 1 2 tcp 1000 ------- 1 1.0 3.1 4 7
+ 0.290752 1 2 tcp 1000 ------- 1 1.0 3.1 5 8
+ 0.290752 1 2 tcp 1000 ------- 1 1.0 3.1 6 9
+ 0.290752 1 2 tcp 1000 ------- 1 1.0 3.1 7 10
+ 0.290752 1 2 tcp 1000 ------- 1 1.0 3.1 8 11
+ 0.290752 1 2 tcp 1000 ------- 1 1.0 3.1 9 12
+ 0.290752 1 2 tcp 1000 ------- 1 1.0 3.1 10 13
+ 0.290752 1 2 tcp 1000 ------- 1 1.0 3.1 11 14
+ 0.290752 1 2 tcp 1000 ------- 1 1.0 3.1 12 15
+ 0.290752 1 2 tcp 1000 ------- 1 1.0 3.1 13 16
+ 0.290752 1 2 tcp 1000 ------- 1 1.0 3.1 14 17
+ 0.290752 1 2 tcp 1000 ------- 1 1.0 3.1 15 18
+ 0.290752 1 2 tcp 1000 ------- 1 1.0 3.1 16 19
+ 0.290752 1 2 tcp 1000 ------- 1 1.0 3.1 17 20
+ 0.290752 1 2 tcp 1000 ------- 1 1.0 3.1 18 21
+ 0.290752 1 2 tcp 1000 ------- 1 1.0 3.1 19 22
+ 0.290752 1 2 tcp 1000 ------- 1 1.0 3.1 20 23
+ 0.290752 1 2 tcp 1000 ------- 1 1.0 3.1 21 24
+ 0.290752 1 2 tcp 1000 ------- 1 1.0 3.1 22 25
+ 0.290752 1 2 tcp 1000 ------- 1 1.0 3.1 23 26
+ 0.290752 1 2 tcp 1000 ------- 1 1.0 3.1 24 27
+ 0.290752 1 2 tcp 1000 ------- 1 1.0 3.1 25 28
+ 0.290752 1 2 tcp 1000 ------- 1 1.0 3.1 26 29
+ 0.290752 1 2 tcp 1000 ------- 1 1.0 3.1 27 30
+ 0.290752 1 2 tcp 1000 ------- 1 1.0 3.1 28 31
+ 0.290752 1 2 tcp 1000 ------- 1 1.0 3.1 29 32
+ 0.290752 1 2 tcp 1000 ------- 1 1.0 3.1 30 33
+ 0.290752 1 2 tcp 1000 ------- 1 1.0 3.1 31 34
+ 0.290752 1 2 tcp 1000 ------- 1 1.0 3.1 32 35
+ 0.290752 1 2 tcp 1000 ------- 1 1.0 3.1 33 36
+ 0.290752 1 2 tcp 1000 ------- 1 1.0 3.1 34 37
+ 0.290752 1 2 tcp 1000 ------- 1 1.0 3.1 35 38
+ 0.290752 1 2 tcp 1000 ------- 1 1.0 3.1 36 39
+ 0.290752 1 2 tcp 1000 ------- 1 1.0 3.1 37 40
+ 0.290752 1 2 tcp 1000 ------- 1 1.0 3.1 38 41
+ 0.290752 1 2 tcp 1000 ------- 1 1.0 3.1 39 42
+ 0.290752 1 2 tcp 1000 ------- 1 1.0 3.1 40 43
+ 0.290752 1 2 tcp 1000 ------- 1 1.0 3.1 41 44
- 0.292352 1 2 tcp 1000 ------- 1 1.0 3.1 4 7
- 0.293952 1 2 tcp 1000 ------- 1 1.0 3.1 5 8
- 0.295552 1 2 tcp 1000 ------- 1 1.0 3.1 6 9
- 0.297152 1 2 tcp 1000 ------- 1 1.0 3.1 7 10
- 0.298752 1 2 tcp 1000 ------- 1 1.0 3.1 8 11
r 0.298752 2 1 ack 40 ------- 1 3.1 1.0 2 5
+ 0.298752 1 2 tcp 1000 ------- 1 1.0 3.1 42 45
- 0.300352 1 2 tcp 1000 ------- 1 1.0 3.1 9 12
- 0.301952 1 2 tcp 1000 ------- 1 1.0 3.1 10 13
- 0.303552 1 2 tcp 1000 ------- 1 1.0 3.1 11 14
- 0.305152 1 2 tcp 1000 ------- 1 1.0 3.1 12 15
- 0.306752 1 2 tcp 1000 ------- 1 1.0 3.1 13 16
- 0.308352 1 2 tcp 1000 ------- 1 1.0 3.1 14 17
- 0.309952 1 2 tcp 1000 ------- 1 1.0 3.1 15 18
- 0.311552 1 2 tcp 1000 ------- 1 1.0 3.1 16 19
r 0.312352 1 2 tcp 1000 ------- 1 1.0 3.1 3 6
+ 0.312352 2 3 tcp 1000 ------- 1 1.0 3.1 3 6
- 0.312352 2 3 tcp 1000 ------- 1 1.0 3.1 3 6
- 0.313152 1 2 tcp 1000 ------- 1 1.0 3.1 17 20
r 0.313952 1 2 tcp 1000 ------- 1 1.0 3.1 4 7
+ 0.313952 2 3 tcp 1000 ------- 1 1.0 3.1 4 7
- 0.314752 1 2 tcp 1000 ------- 1 1.0 3.1 18 21
r 0.315552 1 2 tcp 1000 ------- 1 1.0 3.1 5 8
+ 0.315552 2 3 tcp 1000 ------- 1 1.0 3.1 5 8
- 0.316352 1 2 tcp 1000 ------- 1 1.0 3.1 19 22
r 0.317152 1 2 tcp 1000 ------- 1 1.0 3.1 6 9
+ 0.317152 2 3 tcp 1000 ------- 1 1.0 3.1 6 9
- 0.317952 1 2 tcp 1000 ------- 1 1.0 3.1 20 23
r 0.318752 1 2 tcp 1000 ------- 1 1.0 3.1 7 10
+ 0.318752 2 3 tcp 1000 ------- 1 1.0 3.1 7 10
- 0.319552 1 2 tcp 1000 ------- 1 1.0 3.1 21 24
r 0.320352 1 2 tcp 1000 ------- 1 1.0 3.1 8 11
+ 0.320352 2 3 tcp 1000 ------- 1 1.0 3.1 8 11
- 0.320352 2 3 tcp 1000 ------- 1 1.0 3.1 4 7
- 0.321152 1 2 tcp 1000 ------- 1 1.0 3.1 22 25
r 0.321952 1 2 tcp 1000 ------- 1 1.0 3.1 9 12
+ 0.321952 2 3 tcp 1000 ------- 1 1.0 3.1 9 12
- 0.322752 1 2 tcp 1000 ------- 1 1.0 3.1 23 26
r 0.323552 1 2 tcp 1000 ------- 1 1.0 3.1 10 13
+ 0.323552 2 3 tcp 1000 ------- 1 1.0 3.1 10 13
- 0.324352 1 2 tcp 1000 ------- 1 1.0 3.1 24 27
r 0.325152 1 2 tcp 1000 ------- 1 1.0 3.1 11 14
+ 0.325152 2 3 tcp 1000 ------- 1 1.0 3.1 11 14
- 0.325952 1 2 tcp 1000 ------- 1 1.0 3.1 25 28
r 0.326752 1 2 tcp 1000 ------- 1 1.0 3.1 12 15
+ 0.326752 2 3 tcp 1000 ------- 1 1.0 3.1 12 15
- 0.327552 1 2 tcp 1000 ------- 1 1.0 3.1 26 29
r 0.328352 1 2 tcp 1000 ------- 1 1.0 3.1 13 16
+ 0.328352 2 3 tcp 1000 ------- 1 1.0 3.1 13 16
- 0.328352 2 3 tcp 1000 ------- 1 1.0 3.1 5 8
- 0.329152 1 2 tcp 1000 ------- 1 1.0 3.1 27 30
r 0.329952 1 2 tcp 1000 ------- 1 1.0 3.1 14 17
+ 0.329952 2 3 tcp 1000 ------- 1 1.0 3.1 14 17
- 0.330752 1 2 tcp 1000 ------- 1 1.0 3.1 28 31
r 0.331552 1 2 tcp 1000 ------- 1 1.0 3.1 15 18
+ 0.331552 2 3 tcp 1000 ------- 1 1.0 3.1 15 18
- 0.332352 1 2 tcp 1000 ------- 1 1.0 3.1 29 32
r 0.333152 1 2 tcp 1000 ------- 1 1.0 3.1 16 19
+ 0.333152 2 3 tcp 1000 ------- 1 1.0 3.1 16 19
- 0.333952 1 2 tcp 1000 ------- 1 1.0 3.1 30 33
r 0.334752 1 2 tcp 1000 ------- 1 1.0 3.1 17 20
+ 0.334752 2 3 tcp 1000 ------- 1 1.0 3.1 17 20
- 0.335552 1 2 tcp 1000 ------- 1 1.0 3.1 31 34
r 0.336352 1 2 tcp 1000 ------- 1 1.0 3.1 18 21
+ 0.336352 2 3 tcp 1000 ------- 1 1.0 3.1 18 21
- 0.336352 2 3 tcp 1000 ------- 1 1.0 3.1 6 9
- 0.337152 1 2 tcp 1000 ------- 1 1.0 3.1 32 35
r 0.337952 1 2 tcp 1000 ------- 1 1.0 3.1 19 22
+ 0.337952 2 3 tcp 1000 ------- 1 1.0 3.1 19 22
- 0.338752 1 2 tcp 1000 ------- 1 1.0 3.1 33 36
r 0.339552 1 2 tcp 1000 ------- 1 1.0 3.1 20 23
+ 0.339552 2 3 tcp 1000 ------- 1 1.0 3.1 20 23
- 0.340352 1 2 tcp 1000 ------- 1 1.0 3.1 34 37
r 0.341152 1 2 tcp 1000 ------- 1 1.0 3.1 21 24
+ 0.341152 2 3 tcp 1000 ------- 1 1.0 3.1 21 24
- 0.341952 1 2 tcp 1000 ------- 1 1.0 3.1 35 38
r 0.342752 1 2 tcp 1000 ------- 1 1.0 3.1 22 25
+ 0.342752 2 3 tcp 1000 ------- 1 1.0 3.1 22 25
- 0.343552 1 2 tcp 1000 ------- 1 1.0 3.1 36 39
r 0.344352 1 2 tcp 1000 ------- 1 1.0 3.1 23 26
+ 0.344352 2 3 tcp 1000 ------- 1 1.0 3.1 23 26
- 0.344352 2 3 tcp 1000 ------- 1 1.0 3.1 7 10
- 0.345152 1 2 tcp 1000 ------- 1 1.0 3.1 37 40
r 0.345952 1 2 tcp 1000 ------- 1 1.0 3.1 24 27
+ 0.345952 2 3 tcp 1000 ------- 1 1.0 3.1 24 27
- 0.346752 1 2 tcp 1000 ------- 1 1.0 3.1 38 41
r 0.347552 1 2 tcp 1000 ------- 1 1.0 3.1 25 28
+ 0.347552 2 3 tcp 1000 ------- 1 1.0 3.1 25 28
- 0.348352 1 2 tcp 1000 ------- 1 1.0 3.1 39 42
r 0.349152 1 2 tcp 1000 ------- 1 1.0 3.1 26 29
+ 0.349152 2 3 tcp 1000 ------- 1 1.0 3.1 26 29
- 0.349952 1 2 tcp 1000 ------- 1 1.0 3.1 40 43
r 0.350752 1 2 tcp 1000 ------- 1 1.0 3.1 27 30
+ 0.350752 2 3 tcp 1000 ------- 1 1.0 3.1 27 30
- 0.351552 1 2 tcp 1000 ------- 1 1.0 3.1 41 44
r 0.352352 1 2 tcp 1000 ------- 1 1.0 3.1 28 31
+ 0.352352 2 3 tcp 1000 ------- 1 1.0 3.1 28 31
- 0.352352 2 3 tcp 1000 ------- 1 1.0 3.1 8 11
- 0.353152 1 2 tcp 1000 ------- 1 1.0 3.1 42 45
r 0.353952 1 2 tcp 1000 ------- 1 1.0 3.1 29 32
+ 0.353952 2 3 tcp 1000 ------- 1 1.0 3.1 29 32
r 0.355552 1 2 tcp 1000 ------- 1 1.0 3.1 30 33
+ 0.355552 2 3 tcp 1000 ------- 1 1.0 3.1 30 33
r 0.357152 1 2 tcp 1000 ------- 1 1.0 3.1 31 34
+ 0.357152 2 3 tcp 1000 ------- 1 1.0 3.1 31 34
r 0.358752 1 2 tcp 1000 ------- 1 1.0 3.1 32 35
+ 0.358752 2 3 tcp 1000 ------- 1 1.0 3.1 32 35
r 0.360352 1 2 tcp 1000 ------- 1 1.0 3.1 33 36
+ 0.360352 2 3 tcp 1000 ------- 1 1.0 3.1 33 36
- 0.360352 2 3 tcp 1000 ------- 1 1.0 3.1 9 12
r 0.361952 1 2 tcp 1000 ------- 1 1.0 3.1 34 37
+ 0.361952 2 3 tcp 1000 ------- 1 1.0 3.1 34 37
r 0.363552 1 2 tcp 1000 ------- 1 1.0 3.1 35 38
+ 0.363552 2 3 tcp 1000 ------- 1 1.0 3.1 35 38
r 0.365152 1 2 tcp 1000 ------- 1 1.0 3.1 36 39
+ 0.365152 2 3 tcp 1000 ------- 1 1.0 3.1 36 39
r 0.366752 1 2 tcp 1000 ------- 1 1.0 3.1 37 40
+ 0.366752 2 3 tcp 1000 ------- 1 1.0 3.1 37 40
r 0.368352 1 2 tcp 1000 ------- 1 1.0 3.1 38 41
+ 0.368352 2 3 tcp 1000 ------- 1 1.0 3.1 38 41
- 0.368352 2 3 tcp 1000 ------- 1 1.0 3.1 10 13
r 0.369952 1 2 tcp 1000 ------- 1 1.0 3.1 39 42
+ 0.369952 2 3 tcp 1000 ------- 1 1.0 3.1 39 42
r 0.370352 2 3 tcp 1000 ------- 1 1.0 3.1 3 6
+ 0.370352 3 2 ack 40 ------- 1 3.1 1.0 3 46
- 0.370352 3 2 ack 40 ------- 1 3.1 1.0 3 46
r 0.371552 1 2 tcp 1000 ------- 1 1.0 3.1 40 43
+ 0.371552 2 3 tcp 1000 ------- 1 1.0 3.1 40 43
r 0.373152 1 2 tcp 1000 ------- 1 1.0 3.1 41 44
+ 0.373152 2 3 tcp 1000 ------- 1 1.0 3.1 41 44
r 0.374752 1 2 tcp 1000 ------- 1 1.0 3.1 42 45
+ 0.374752 2 3 tcp 1000 ------- 1 1.0 3.1 42 45
- 0.376352 2 3 tcp 1000 ------- 1 1.0 3.1 11 14
r 0.378352 2 3 tcp 1000 ------- 1 1.0 3.1 4 7
+ 0.378352 3 2 ack 40 ------- 1 3.1 1.0 4 47
- 0.378352 3 2 ack 40 ------- 1 3.1 1.0 4 47
- 0.384352 2 3 tcp 1000 ------- 1 1.0 3.1 12 15
r 0.386352 2 3 tcp 1000 ------- 1 1.0 3.1 5 8
+ 0.386352 3 2 ack 40 ------- 1 3.1 1.0 5 48
- 0.386352 3 2 ack 40 ------- 1 3.1 1.0 5 48
- 0.392352 2 3 tcp 1000 ------- 1 1.0 3.1 13 16
r 0.394352 2 3 tcp 1000 ------- 1 1.0 3.1 6 9
+ 0.394352 3 2 ack 40 ------- 1 3.1 1.0 6 49
- 0.394352 3 2 ack 40 ------- 1 3.1 1.0 6 49
- 0.400352 2 3 tcp 1000 ------- 1 1.0 3.1 14 17
r 0.402352 2 3 tcp 1000 ------- 1 1.0 3.1 7 10
+ 0.402352 3 2 ack 40 ------- 1 3.1 1.0 7 50
- 0.402352 3 2 ack 40 ------- 1 3.1 1.0 7 50
- 0.408352 2 3 tcp 1000 ------- 1 1.0 3.1 15 18
r 0.410352 2 3 tcp 1000 ------- 1 1.0 3.1 8 11
+ 0.410352 3 2 ack 40 ------- 1 3.1 1.0 8 51
- 0.410352 3 2 ack 40 ------- 1 3.1 1.0 8 51
- 0.416352 2 3 tcp 1000 ------- 1 1.0 3.1 16 19
r 0.418352 2 3 tcp 1000 ------- 1 1.0 3.1 9 12
+ 0.418352 3 2 ack 40 ------- 1 3.1 1.0 9 52
- 0.418352 3 2 ack 40 ------- 1 3.1 1.0 9 52
r 0.420672 3 2 ack 40 ------- 1 3.1 1.0 3 46
+ 0.420672 2 1 ack 40 ------- 1 3.1 1.0 3 46
- 0.420672 2 1 ack 40 ------- 1 3.1 1.0 3 46
- 0.424352 2 3 tcp 1000 ------- 1 1.0 3.1 17 20
r 0.426352 2 3 tcp 1000 ------- 1 1.0 3.1 10 13
+ 0.426352 3 2 ack 40 ------- 1 3.1 1.0 10 53
- 0.426352 3 2 ack 40 ------- 1 3.1 1.0 10 53
r 0.428672 3 2 ack 40 ------- 1 3.1 1.0 4 47
+ 0.428672 2 1 ack 40 ------- 1 3.1 1.0 4 47
- 0.428672 2 1 ack 40 ------- 1 3.1 1.0 4 47
- 0.432352 2 3 tcp 1000 ------- 1 1.0 3.1 18 21
r 0.434352 2 3 tcp 1000 ------- 1 1.0 3.1 11 14
+ 0.434352 3 2 ack 40 ------- 1 3.1 1.0 11 54
- 0.434352 3 2 ack 40 ------- 1 3.1 1.0 11 54
r 0.436672 3 2 ack 40 ------- 1 3.1 1.0 5 48
+ 0.436672 2 1 ack 40 ------- 1 3.1 1.0 5 48
- 0.436672 2 1 ack 40 ------- 1 3.1 1.0 5 48
- 0.440352 2 3 tcp 1000 ------- 1 1.0 3.1 19 22
r 0.440736 2 1 ack 40 ------- 1 3.1 1.0 3 46
+ 0.440736 1 2 tcp 1000 ------- 1 1.0 3.1 43 55
- 0.440736 1 2 tcp 1000 ------- 1 1.0 3.1 43 55
r 0.442352 2 3 tcp 1000 ------- 1 1.0 3.1 12 15
+ 0.442352 3 2 ack 40 ------- 1 3.1 1.0 12 56
- 0.442352 3 2 ack 40 ------- 1 3.1 1.0 12 56
r 0.444672 3 2 ack 40 ------- 1 3.1 1.0 6 49
+ 0.444672 2 1 ack 40 ------- 1 3.1 1.0 6 49
- 0.444672 2 1 ack 40 ------- 1 3.1 1.0 6 49
- 0.448352 2 3 tcp 1000 ------- 1 1.0 3.1 20 23
r 0.448736 2 1 ack 40 ------- 1 3.1 1.0 4 47
+ 0.448736 1 2 tcp 1000 ------- 1 1.0 3.1 44 57
- 0.448736 1 2 tcp 1000 ------- 1 1.0 3.1 44 57
r 0.450352 2 3 tcp 1000 ------- 1 1.0 3.1 13 16
+ 0.450352 3 2 ack 40 ------- 1 3.1 1.0 13 58
- 0.450352 3 2 ack 40 ------- 1 3.1 1.0 13 58
r 0.452672 3 2 ack 40 ------- 1 3.1 1.0 7 50
+ 0.452672 2 1 ack 40 ------- 1 3.1 1.0 7 50
- 0.452672 2 1 ack 40 ------- 1 3.1 1.0 7 50
- 0.456352 2 3 tcp 1000 ------- 1 1.0 3.1 21 24
r 0.456736 2 1 ack 40 ------- 1 3.1 1.0 5 48
+ 0.456736 1 2 tcp 1000 ------- 1 1.0 3.1 45 59
- 0.456736 1 2 tcp 1000 ------- 1 1.0 3.1 45 59
r 0.458352 2 3 tcp 1000 ------- 1 1.0 3.1 14 17
+ 0.458352 3 2 ack 40 ------- 1 3.1 1.0 14 60
- 0.458352 3 2 ack 40 ------- 1 3.1 1.0 14 60
r 0.460672 3 2 ack 40 ------- 1 3.1 1.0 8 51
+ 0.460672 2 1 ack 40 ------- 1 3.1 1.0 8 51
- 0.460672 2 1 ack 40 ------- 1 3.1 1.0 8 51
r 0.462336 1 2 tcp 1000 ------- 1 1.0 3.1 43 55
+ 0.462336 2 3 tcp 1000 ------- 1 1.0 3.1 43 55
- 0.464352 2 3 tcp 1000 ------- 1 1.0 3.1 22 25
r 0.464736 2 1 ack 40 ------- 1 3.1 1.0 6 49
+ 0.464736 1 2 tcp 1000 ------- 1 1.0 3.1 46 61
- 0.464736 1 2 tcp 1000 ------- 1 1.0 3.1 46 61
r 0.466352 2 3 tcp 1000 ------- 1 1.0 3.1 15 18
+ 0.466352 3 2 ack 40 ------- 1 3.1 1.0 15 62
- 0.466352 3 2 ack 40 ------- 1 3.1 1.0 15 62
r 0.468672 3 2 ack 40 ------- 1 3.1 1.0 9 52
+ 0.468672 2 1 ack 40 ------- 1 3.1 1.0 9 52
- 0.468672 2 1 ack 40 ------- 1 3.1 1.0 9 52
r 0.470336 1 2 tcp 1000 ------- 1 1.0 3.1 44 57
+ 0.470336 2 3 tcp 1000 ------- 1 1.0 3.1 44 57
- 0.472352 2 3 tcp 1000 ------- 1 1.0 3.1 23 26
r 0.472736 2 1 ack 40 ------- 1 3.1 1.0 7 50
+ 0.472736 1 2 tcp 1000 ------- 1 1.0 3.1 47 63
- 0.472736 1 2 tcp 1000 ------- 1 1.0 3.1 47 63
r 0.474352 2 3 tcp 1000 ------- 1 1.0 3.1 16 19
+ 0.474352 3 2 ack 40 ------- 1 3.1 1.0 16 64
- 0.474352 3 2 ack 40 ------- 1 3.1 1.0 16 64
r 0.476672 3 2 ack 40 ------- 1 3.1 1.0 10 53
+ 0.476672 2 1 ack 40 ------- 1 3.1 1.0 10 53
- 0.476672 2 1 ack 40 ------- 1 3.1 1.0 10 53
r 0.478336 1 2 tcp 1000 ------- 1 1.0 3.1 45 59
+ 0.478336 2 3 tcp 1000 ------- 1 1.0 3.1 45 59
- 0.480352 2 3 tcp 1000 ------- 1 1.0 3.1 24 27
r 0.480736 2 1 ack 40 ------- 1 3.1 1.0 8 51
+ 0.480736 1 2 tcp 1000 ------- 1 1.0 3.1 48 65
- 0.480736 1 2 tcp 1000 ------- 1 1.0 3.1 48 65
r 0.482352 2 3 tcp 1000 ------- 1 1.0 3.1 17 20
+ 0.482352 3 2 ack 40 ------- 1 3.1 1.0 17 66
- 0.482352 3 2 ack 40 ------- 1 3.1 1.0 17 66
r 0.484672 3 2 ack 40 ------- 1 3.1 1.0 11 54
+ 0.484672 2 1 ack 40 ------- 1 3.1 1.0 11 54
- 0.484672 2 1 ack 40 ------- 1 3.1 1.0 11 54
r 0.486336 1 2 tcp 1000 ------- 1 1.0 3.1 46 61
+ 0.486336 2 3 tcp 1000 ------- 1 1.0 3.1 46 61
- 0.488352 2 3 tcp 1000 ------- 1 1.0 3.1 25 28
r 0.488736 2 1 ack 40 ------- 1 3.1 1.0 9 52
+ 0.488736 1 2 tcp 1000 ------- 1 1.0 3.1 49 67
- 0.488736 1 2 tcp 1000 ------- 1 1.0 3.1 49 67
r 0.490352 2 3 tcp 1000 ------- 1 1.0 3.1 18 21
+ 0.490352 3 2 ack 40 ------- 1 3.1 1.0 18 68
- 0.490352 3 2 ack 40 ------- 1 3.1 1.0 18 68
r 0.492672 3 2 ack 40 ------- 1 3.1 1.0 12 56
+ 0.492672 2 1 ack 40 ------- 1 3.1 1.0 12 56
- 0.492672 2 1 ack 40 ------- 1 3.1 1.0 12 56
r 0.494336 1 2 tcp 1000 ------- 1 1.0 3.1 47 63
+ 0.494336 2 3 tcp 1000 ------- 1 1.0 3.1 47 63
- 0.496352 2 3 tcp 1000 ------- 1 1.0 3.1 26 29
r 0.496736 2 1 ack 40 ------- 1 3.1 1.0 10 53
+ 0.496736 1 2 tcp 1000 ------- 1 1.0 3.1 50 69
- 0.496736 1 2 tcp 1000 ------- 1 1.0 3.1 50 69
r 0.498352 2 3 tcp 1000 ------- 1 1.0 3.1 19 22
+ 0.498352 3 2 ack 40 ------- 1 3.1 1.0 19 70
- 0.498352 3 2 ack 40 ------- 1 3.1 1.0 19 70
r 0.500672 3 2 ack 40 ------- 1 3.1 1.0 13 58
+ 0.500672 2 1 ack 40 ------- 1 3.1 1.0 13 58
- 0.500672 2 1 ack 40 ------- 1 3.1 1.0 13 58
r 0.502336 1 2 tcp 1000 ------- 1 1.0 3.1 48 65
+ 0.502336 2 3 tcp 1000 ------- 1 1.0 3.1 48 65
- 0.504352 2 3 tcp 1000 ------- 1 1.0 3.1 27 30
r 0.504736 2 1 ack 40 ------- 1 3.1 1.0 11 54
+ 0.504736 1 2 tcp 1000 ------- 1 1.0 3.1 51 71
- 0.504736 1 2 tcp 1000 ------- 1 1.0 3.1 51 71
r 0.506352 2 3 tcp 1000 ------- 1 1.0 3.1 20 23
+ 0.506352 3 2 ack 40 ------- 1 3.1 1.0 20 72
- 0.506352 3 2 ack 40 ------- 1 3.1 1.0 20 72
r 0.508672 3 2 ack 40 ------- 1 3.1 1.0 14 60
+ 0.508672 2 1 ack 40 ------- 1 3.1 1.0 14 60
- 0.508672 2 1 ack 40 ------- 1 3.1 1.0 14 60
r 0.510336 1 2 tcp 1000 ------- 1 1.0 3.1 49 67
+ 0.510336 2 3 tcp 1000 ------- 1 1.0 3.1 49 67
- 0.512352 2 3 tcp 1000 ------- 1 1.0 3.1 28 31
r 0.512736 2 1 ack 40 ------- 1 3.1 1.0 12 56
+ 0.512736 1 2 tcp 1000 ------- 1 1.0 3.1 52 73
- 0.512736 1 2 tcp 1000 ------- 1 1.0 3.1 52 73
r 0.514352 2 3 tcp 1000 ------- 1 1.0 3.1 21 24
+ 0.514352 3 2 ack 40 ------- 1 3.1 1.0 21 74
- 0.514352 3 2 ack 40 ------- 1 3.1 1.0 21 74
r 0.516672 3 2 ack 40 ------- 1 3.1 1.0 15 62
+ 0.516672 2 1 ack 40 ------- 1 3.1 1.0 15 62
- 0.516672 2 1 ack 40 ------- 1 3.1 1.0 15 62
r 0.518336 1 2 tcp 1000 ------- 1 1.0 3.1 50 69
+ 0.518336 2 3 tcp 1000 ------- 1 1.0 3.1 50 69
- 0.520352 2 3 tcp 1000 ------- 1 1.0 3.1 29 32
r 0.520736 2 1 ack 40 ------- 1 3.1 1.0 13 58
+ 0.520736 1 2 tcp 1000 ------- 1 1.0 3.1 53 75
- 0.520736 1 2 tcp 1000 ------- 1 1.0 3.1 53 75
r 0.522352 2 3 tcp 1000 ------- 1 1.0 3.1 22 25
+ 0.522352 3 2 ack 40 ------- 1 3.1 1.0 22 76
- 0.522352 3 2 ack 40 ------- 1 3.1 1.0 22 76
r 0.524672 3 2 ack 40 ------- 1 3.1 1.0 16 64
+ 0.524672 2 1 ack 40 ------- 1 3.1 1.0 16 64
- 0.524672 2 1 ack 40 ------- 1 3.1 1.0 16 64
r 0.526336 1 2 tcp 1000 ------- 1 1.0 3.1 51 71
+ 0.526336 2 3 tcp 1000 ------- 1 1.0 3.1 51 71
- 0.528352 2 3 tcp 1000 ------- 1 1.0 3.1 30 33
r 0.528736 2 1 ack 40 ------- 1 3.1 1.0 14 60
+ 0.528736 1 2 tcp 1000 ------- 1 1.0 3.1 54 77
- 0.528736 1 2 tcp 1000 ------- 1 1.0 3.1 54 77
r 0.530352 2 3 tcp 1000 ------- 1 1.0 3.1 23 26
+ 0.530352 3 2 ack 40 ------- 1 3.1 1.0 23 78
- 0.530352 3 2 ack 40 ------- 1 3.1 1.0 23 78
r 0.532672 3 2 ack 40 ------- 1 3.1 1.0 17 66
+ 0.532672 2 1 ack 40 ------- 1 3.1 1.0 17 66
- 0.532672 2 1 ack 40 ------- 1 3.1 1.0 17 66
r 0.534336 1 2 tcp 1000 ------- 1 1.0 3.1 52 73
+ 0.534336 2 3 tcp 1000 ------- 1 1.0 3.1 52 73
- 0.536352 2 3 tcp 1000 ------- 1 1.0 3.1 31 34
r 0.536736 2 1 ack 40 ------- 1 3.1 1.0 15 62
+ 0.536736 1 2 tcp 1000 ------- 1 1.0 3.1 55 79
- 0.536736 1 2 tcp 1000 ------- 1 1.0 3.1 55 79
r 0.538352 2 3 tcp 1000 ------- 1 1.0 3.1 24 27
+ 0.538352 3 2 ack 40 ------- 1 3.1 1.0 24 80
- 0.538352 3 2 ack 40 ------- 1 3.1 1.0 24 80
r 0.540672 3 2 ack 40 ------- 1 3.1 1.0 18 68
+ 0.540672 2 1 ack 40 ------- 1 3.1 1.0 18 68
- 0.540672 2 1 ack 40 ------- 1 3.1 1.0 18 68
r 0.542336 1 2 tcp 1000 ------- 1 1.0 3.1 53 75
+ 0.542336 2 3 tcp 1000 ------- 1 1.0 3.1 53 75
- 0.544352 2 3 tcp 1000 ------- 1 1.0 3.1 32 35
r 0.544736 2 1 ack 40 ------- 1 3.1 1.0 16 64
+ 0.544736 1 2 tcp 1000 ------- 1 1.0 3.1 56 81
- 0.544736 1 2 tcp 1000 ------- 1 1.0 3.1 56 81
r 0.546352 2 3 tcp 1000 ------- 1 1.0 3.1 25 28
+ 0.546352 3 2 ack 40 ------- 1 3.1 1.0 25 82
- 0.546352 3 2 ack 40 ------- 1 3.1 1.0 25 82
r 0.548672 3 2 ack 40 ------- 1 3.1 1.0 19 70
+ 0.548672 2 1 ack 40 ------- 1 3.1 1.0 19 70
- 0.548672 2 1 ack 40 ------- 1 3.1 1.0 19 70
r 0.550336 1 2 tcp 1000 ------- 1 1.0 3.1 54 77
+ 0.550336 2 3 tcp 1000 ------- 1 1.0 3.1 54 77
- 0.552352 2 3 tcp 1000 ------- 1 1.0 3.1 33 36
r 0.552736 2 1 ack 40 ------- 1 3.1 1.0 17 66
+ 0.552736 1 2 tcp 1000 ------- 1 1.0 3.1 57 83
- 0.552736 1 2 tcp 1000 ------- 1 1.0 3.1 57 83
r 0.554352 2 3 tcp 1000 ------- 1 1.0 3.1 26 29
+ 0.554352 3 2 ack 40 ------- 1 3.1 1.0 26 84
- 0.554352 3 2 ack 40 ------- 1 3.1 1.0 26 84
r 0.556672 3 2 ack 40 ------- 1 3.1 1.0 20 72
+ 0.556672 2 1 ack 40 ------- 1 3.1 1.0 20 72
- 0.556672 2 1 ack 40 ------- 1 3.1 1.0 20 72
r 0.558336 1 2 tcp 1000 ------- 1 1.0 3.1 55 79
+ 0.558336 2 3 tcp 1000 ------- 1 1.0 3.1 55 79
- 0.560352 2 3 tcp 1000 ------- 1 1.0 3.1 34 37
r 0.560736 2 1 ack 40 ------- 1 3.1 1.0 18 68
+ 0.560736 1 2 tcp 1000 ------- 1 1.0 3.1 58 85
- 0.560736 1 2 tcp 1000 ------- 1 1.0 3.1 58 85
r 0.562352 2 3 tcp 1000 ------- 1 1.0 3.1 27 30
+ 0.562352 3 2 ack 40 ------- 1 3.1 1.0 27 86
- 0.562352 3 2 ack 40 ------- 1 3.1 1.0 27 86
r 0.564672 3 2 ack 40 ------- 1 3.1 1.0 21 74
+ 0.564672 2 1 ack 40 ------- 1 3.1 1.0 21 74
- 0.564672 2 1 ack 40 ------- 1 3.1 1.0 21 74
r 0.566336 1 2 tcp 1000 ------- 1 1.0 3.1 56 81
+ 0.566336 2 3 tcp 1000 ------- 1 1.0 3.1 56 81
- 0.568352 2 3 tcp 1000 ------- 1 1.0 3.1 35 38
r 0.568736 2 1 ack 40 ------- 1 3.1 1.0 19 70
+ 0.568736 1 2 tcp 1000 ------- 1 1.0 3.1 59 87
- 0.568736 1 2 tcp 1000 ------- 1 1.0 3.1 59 87
r 0.570352 2 3 tcp 1000 ------- 1 1.0 3.1 28 31
+ 0.570352 3 2 ack 40 ------- 1 3.1 1.0 28 88
- 0.570352 3 2 ack 40 ------- 1 3.1 1.0 28 88
r 0.572672 3 2 ack 40 ------- 1 3.1 1.0 22 76
+ 0.572672 2 1 ack 40 ------- 1 3.1 1.0 22 76
- 0.572672 2 1 ack 40 ------- 1 3.1 1.0 22 76
r 0.574336 1 2 tcp 1000 ------- 1 1.0 3.1 57 83
+ 0.574336 2 3 tcp 1000 ------- 1 1.0 3.1 57 83
- 0.576352 2 3 tcp 1000 ------- 1 1.0 3.1 36 39
r 0.576736 2 1 ack 40 ------- 1 3.1 1.0 20 72
+ 0.576736 1 2 tcp 1000 ------- 1 1.0 3.1 60 89
- 0.576736 1 2 tcp 1000 ------- 1 1.0 3.1 60 89
r 0.578352 2 3 tcp 1000 ------- 1 1.0 3.1 29 32
+ 0.578352 3 2 ack 40 ------- 1 3.1 1.0 29 90
- 0.578352 3 2 ack 40 ------- 1 3.1 1.0 29 90
r 0.580672 3 2 ack 40 ------- 1 3.1 1.0 23 78
+ 0.580672 2 1 ack 40 ------- 1 3.1 1.0 23 78
- 0.580672 2 1 ack 40 ------- 1 3.1 1.0 23 78
r 0.582336 1 2 tcp 1000 ------- 1 1.0 3.1 58 85
+ 0.582336 2 3 tcp 1000 ------- 1 1.0 3.1 58 85
- 0.584352 2 3 tcp 1000 ------- 1 1.0 3.1 37 40
r 0.584736 2 1 ack 40 ------- 1 3.1 1.0 21 74
+ 0.584736 1 2 tcp 1000 ------- 1 1.0 3.1 61 91
- 0.584736 1 2 tcp 1000 ------- 1 1.0 3.1 61 91
r 0.586352 2 3 tcp 1000 ------- 1 1.0 3.1 30 33
+ 0.586352 3 2 ack 40 ------- 1 3.1 1.0 30 92
- 0.586352 3 2 ack 40 ------- 1 3.1 1.0 30 92
r 0.588672 3 2 ack 40 ------- 1 3.1 1.0 24 80
+ 0.588672 2 1 ack 40 ------- 1 3.1 1.0 24 80
- 0.588672 2 1 ack 40 ------- 1 3.1 1.0 24 80
r 0.590336 1 2 tcp 1000 ------- 1 1.0 3.1 59 87
+ 0.590336 2 3 tcp 1000 ------- 1 1.0 3.1 59 87
- 0.592352 2 3 tcp 1000 ------- 1 1.0 3.1 38 41
r 0.592736 2 1 ack 40 ------- 1 3.1 1.0 22 76
+ 0.592736 1 2 tcp 1000 ------- 1 1.0 3.1 62 93
- 0.592736 1 2 tcp 1000 ------- 1 1.0 3.1 62 93
r 0.594352 2 3 tcp 1000 ------- 1 1.0 3.1 31 34
+ 0.594352 3 2 ack 40 ------- 1 3.1 1.0 31 94
- 0.594352 3 2 ack 40 ------- 1 3.1 1.0 31 94
r 0.596672 3 2 ack 40 ------- 1 3.1 1.0 25 82
+ 0.596672 2 1 ack 40 ------- 1 3.1 1.0 25 82
- 0.596672 2 1 ack 40 ------- 1 3.1 1.0 25 82
r 0.598336 1 2 tcp 1000 ------- 1 1.0 3.1 60 89
+ 0.598336 2 3 tcp 1000 ------- 1 1.0 3.1 60 89
- 0.600352 2 3 tcp 1000 ------- 1 1.0 3.1 39 42
r 0.600736 2 1 ack 40 ------- 1 3.1 1.0 23 78
+ 0.600736 1 2 tcp 1000 ------- 1 1.0 3.1 63 95
- 0.600736 1 2 tcp 1000 ------- 1 1.0 3.1 63 95
r 0.602352 2 3 tcp 1000 ------- 1 1.0 3.1 32 35
+ 0.602352 3 2 ack 40 ------- 1 3.1 1.0 32 96
- 0.602352 3 2 ack 40 ------- 1 3.1 1.0 32 96
r 0.604672 3 2 ack 40 ------- 1 3.1 1.0 26 84
+ 0.604672 2 1 ack 40 ------- 1 3.1 1.0 26 84
- 0.604672 2 1 ack 40 ------- 1 3.1 1.0 26 84
r 0.606336 1 2 tcp 1000 ------- 1 1.0 3.1 61 91
+ 0.606336 2 3 tcp 1000 ------- 1 1.0 3.1 61 91
- 0.608352 2 3 tcp 1000 ------- 1 1.0 3.1 40 43
r 0.608736 2 1 ack 40 ------- 1 3.1 1.0 24 80
+ 0.608736 1 2 tcp 1000 ------- 1 1.0 3.1 64 97
- 0.608736 1 2 tcp 1000 ------- 1 1.0 3.1 64 97
r 0.610352 2 3 tcp 1000 ------- 1 1.0 3.1 33 36
+ 0.610352 3 2 ack 40 ------- 1 3.1 1.0 33 98
- 0.610352 3 2 ack 40 ------- 1 3.1 1.0 33 98
r 0.612672 3 2 ack 40 ------- 1 3.1 1.0 27 86
+ 0.612672 2 1 ack 40 ------- 1 3.1 1.0 27 86
- 0.612672 2 1 ack 40 ------- 1 3.1 1.0 27 86
r 0.614336 1 2 tcp 1000 ------- 1 1.0 3.1 62 93
+ 0.614336 2 3 tcp 1000 ------- 1 1.0 3.1 62 93
- 0.616352 2 3 tcp 1000 ------- 1 1.0 3.1 41 44
r 0.616736 2 1 ack 40 ------- 1 3.1 1.0 25 82
+ 0.616736 1 2 tcp 1000 ------- 1 1.0 3.1 65 99
- 0.616736 1 2 tcp 1000 ------- 1 1.0 3.1 65 99
r 0.618352 2 3 tcp 1000 ------- 1 1.0 3.1 34 37
+ 0.618352 3 2 ack 40 ------- 1 3.1 1.0 34 100
- 0.618352 3 2 ack 40 ------- 1 3.1 1.0 34 100
r 0.620672 3 2 ack 40 ------- 1 3.1 1.0 28 88
+ 0.620672 2 1 ack 40 ------- 1 3.1 1.0 28 88
- 0.620672 2 1 ack 40 ------- 1 3.1 1.0 28 88
r 0.622336 1 2 tcp 1000 ------- 1 1.0 3.1 63 95
+ 0.622336 2 3 tcp 1000 ------- 1 1.0 3.1 63 95
- 0.624352 2 3 tcp 1000 ------- 1 1.0 3.1 42 45
r 0.624736 2 1 ack 40 ------- 1 3.1 1.0 26 84
+ 0.624736 1 2 tcp 1000 ------- 1 1.0 3.1 66 101
- 0.624736 1 2 tcp 1000 ------- 1 1.0 3.1 66 101
r 0.626352 2 3 tcp 1000 ------- 1 1.0 3.1 35 38
+ 0.626352 3 2 ack 40 ------- 1 3.1 1.0 35 102
- 0.626352 3 2 ack 40 ------- 1 3.1 1.0 35 102
r 0.628672 3 2 ack 40 ------- 1 3.1 1.0 29 90
+ 0.628672 2 1 ack 40 ------- 1 3.1 1.0 29 90
- 0.628672 2 1 ack 40 ------- 1 3.1 1.0 29 90
r 0.630336 1 2 tcp 1000 ------- 1 1.0 3.1 64 97
+ 0.630336 2 3 tcp 1000 ------- 1 1.0 3.1 64 97
- 0.632352 2 3 tcp 1000 ------- 1 1.0 3.1 43 55
r 0.632736 2 1 ack 40 ------- 1 3.1 1.0 27 86
+ 0.632736 1 2 tcp 1000 ------- 1 1.0 3.1 67 103
- 0.632736 1 2 tcp 1000 ------- 1 1.0 3.1 67 103
r 0.634352 2 3 tcp 1000 ------- 1 1.0 3.1 36 39
+ 0.634352 3 2 ack 40 ------- 1 3.1 1.0 36 104
- 0.634352 3 2 ack 40 ------- 1 3.1 1.0 36 104
r 0.636672 3 2 ack 40 ------- 1 3.1 1.0 30 92
+ 0.636672 2 1 ack 40 ------- 1 3.1 1.0 30 92
- 0.636672 2 1 ack 40 ------- 1 3.1 1.0 30 92
r 0.638336 1 2 tcp 1000 ------- 1 1.0 3.1 65 99
+ 0.638336 2 3 tcp 1000 ------- 1 1.0 3.1 65 99
- 0.640352 2 3 tcp 1000 ------- 1 1.0 3.1 44 57
r 0.640736 2 1 ack 40 ------- 1 3.1 1.0 28 88
+ 0.640736 1 2 tcp 1000 ------- 1 1.0 3.1 68 105
- 0.640736 1 2 tcp 1000 ------- 1 1.0 3.1 68 105
r 0.642352 2 3 tcp 1000 ------- 1 1.0 3.1 37 40
+ 0.642352 3 2 ack 40 ------- 1 3.1 1.0 37 106
- 0.642352 3 2 ack 40 ------- 1 3.1 1.0 37 106
r 0.644672 3 2 ack 40 ------- 1 3.1 1.0 31 94
+ 0.644672 2 1 ack 40 ------- 1 3.1 1.0 31 94
- 0.644672 2 1 ack 40 ------- 1 3.1 1.0 31 94
r 0.646336 1 2 tcp 1000 ------- 1 1.0 3.1 66 101
+ 0.646336 2 3 tcp 1000 ------- 1 1.0 3.1 66 101
- 0.648352 2 3 tcp 1000 ------- 1 1.0 3.1 45 59
r 0.648736 2 1 ack 40 ------- 1 3.1 1.0 29 90
+ 0.648736 1 2 tcp 1000 ------- 1 1.0 3.1 69 107
- 0.648736 1 2 tcp 1000 ------- 1 1.0 3.1 69 107
r 0.650352 2 3 tcp 1000 ------- 1 1.0 3.1 38 41
+ 0.650352 3 2 ack 40 ------- 1 3.1 1.0 38 108
- 0.650352 3 2 ack 40 ------- 1 3.1 1.0 38 108
r 0.652672 3 2 ack 40 ------- 1 3.1 1.0 32 96
+ 0.652672 2 1 ack 40 ------- 1 3.1 1.0 32 96
- 0.652672 2 1 ack 40 ------- 1 3.1 1.0 32 96
r 0.654336 1 2 tcp 1000 ------- 1 1.0 3.1 67 103
+ 0.654336 2 3 tcp 1000 ------- 1 1.0 3.1 67 103
- 0.656352 2 3 tcp 1000 ------- 1 1.0 3.1 46 61
r 0.656736 2 1 ack 40 ------- 1 3.1 1.0 30 92
+ 0.656736 1 2 tcp 1000 ------- 1 1.0 3.1 70 109
- 0.656736 1 2 tcp 1000 ------- 1 1.0 3.1 70 109
r 0.658352 2 3 tcp 1000 ------- 1 1.0 3.1 39 42
+ 0.658352 3 2 ack 40 ------- 1 3.1 1.0 39 110
- 0.658352 3 2 ack 40 ------- 1 3.1 1.0 39 110
r 0.660672 3 2 ack 40 ------- 1 3.1 1.0 33 98
+ 0.660672 2 1 ack 40 ------- 1 3.1 1.0 33 98
- 0.660672 2 1 ack 40 ------- 1 3.1 1.0 33 98
r 0.662336 1 2 tcp 1000 ------- 1 1.0 3.1 68 105
+ 0.662336 2 3 tcp 1000 ------- 1 1.0 3.1 68 105
- 0.664352 2 3 tcp 1000 ------- 1 1.0 3.1 47 63
r 0.664736 2 1 ack 40 ------- 1 3.1 1.0 31 94
+ 0.664736 1 2 tcp 1000 ------- 1 1.0 3.1 71 111
- 0.664736 1 2 tcp 1000 ------- 1 1.0 3.1 71 111
r 0.666352 2 3 tcp 1000 ------- 1 1.0 3.1 40 43
+ 0.666352 3 2 ack 40 ------- 1 3.1 1.0 40 112
- 0.666352 3 2 ack 40 ------- 1 3.1 1.0 40 112
r 0.668672 3 2 ack 40 ------- 1 3.1 1.0 34 100
+ 0.668672 2 1 ack 40 ------- 1 3.1 1.0 34 100
- 0.668672 2 1 ack 40 ------- 1 3.1 1.0 34 100
r 0.670336 1 2 tcp 1000 ------- 1 1.0 3.1 69 107
+ 0.670336 2 3 tcp 1000 ------- 1 1.0 3.1 69 107
- 0.672352 2 3 tcp 1000 ------- 1 1.0 3.1 48 65
r 0.672736 2 1 ack 40 ------- 1 3.1 1.0 32 96
+ 0.672736 1 2 tcp 1000 ------- 1 1.0 3.1 72 113
- 0.672736 1 2 tcp 1000 ------- 1 1.0 3.1 72 113
r 0.674352 2 3 tcp 1000 ------- 1 1.0 3.1 41 44
+ 0.674352 3 2 ack 40 ------- 1 3.1 1.0 41 114
- 0.674352 3 2 ack 40 ------- 1 3.1 1.0 41 114
r 0.676672 3 2 ack 40 ------- 1 3.1 1.0 35 102
+ 0.676672 2 1 ack 40 ------- 1 3.1 1.0 35 102
- 0.676672 2 1 ack 40 ------- 1 3.1 1.0 35 102
r 0.678336 1 2 tcp 1000 ------- 1 1.0 3.1 70 109
+ 0.678336 2 3 tcp 1000 ------- 1 1.0 3.1 70 109
- 0.680352 2 3 tcp 1000 ------- 1 1.0 3.1 49 67
r 0.680736 2 1 ack 40 ------- 1 3.1 1.0 33 98
+ 0.680736 1 2 tcp 1000 ------- 1 1.0 3.1 73 115
- 0.680736 1 2 tcp 1000 ------- 1 1.0 3.1 73 115
r 0.682352 2 3 tcp 1000 ------- 1 1.0 3.1 42 45
+ 0.682352 3 2 ack 40 ------- 1 3.1 1.0 42 116
- 0.682352 3 2 ack 40 ------- 1 3.1 1.0 42 116
r 0.684672 3 2 ack 40 ------- 1 3.1 1.0 36 104
+ 0.684672 2 1 ack 40 ------- 1 3.1 1.0 36 104
- 0.684672 2 1 ack 40 ------- 1 3.1 1.0 36 104
r 0.686336 1 2 tcp 1000 ------- 1 1.0 3.1 71 111
+ 0.686336 2 3 tcp 1000 ------- 1 1.0 3.1 71 111
- 0.688352 2 3 tcp 1000 ------- 1 1.0 3.1 50 69
r 0.688736 2 1 ack 40 ------- 1 3.1 1.0 34 100
+ 0.688736 1 2 tcp 1000 ------- 1 1.0 3.1 74 117
- 0.688736 1 2 tcp 1000 ------- 1 1.0 3.1 74 117
r 0.690352 2 3 tcp 1000 ------- 1 1.0 3.1 43 55
+ 0.690352 3 2 ack 40 ------- 1 3.1 1.0 43 118
- 0.690352 3 2 ack 40 ------- 1 3.1 1.0 43 118
r 0.692672 3 2 ack 40 ------- 1 3.1 1.0 37 106
+ 0.692672 2 1 ack 40 ------- 1 3.1 1.0 37 106
- 0.692672 2 1 ack 40 ------- 1 3.1 1.0 37 106
r 0.694336 1 2 tcp 1000 ------- 1 1.0 3.1 72 113
+ 0.694336 2 3 tcp 1000 ------- 1 1.0 3.1 72 113
- 0.696352 2 3 tcp 1000 ------- 1 1.0 3.1 51 71
r 0.696736 2 1 ack 40 ------- 1 3.1 1.0 35 102
+ 0.696736 1 2 tcp 1000 ------- 1 1.0 3.1 75 119
- 0.696736 1 2 tcp 1000 ------- 1 1.0 3.1 75 119
r 0.698352 2 3 tcp 1000 ------- 1 1.0 3.1 44 57
+ 0.698352 3 2 ack 40 ------- 1 3.1 1.0 44 120
- 0.698352 3 2 ack 40 ------- 1 3.1 1.0 44 120
r 0.700672 3 2 ack 40 ------- 1 3.1 1.0 38 108
+ 0.700672 2 1 ack 40 ------- 1 3.1 1.0 38 108